# vtk DataFile Version 3.0
Mesquite Mesh
ASCII
DATASET UNSTRUCTURED_GRID
POINTS 30 double
0.2705566865 0.9531221302 -0.9875410687
0.7190935402 1.156524874 -1.193445419
0.4280124756 2.110025661 -1.493765909
0.07576925316 1.968839631 -1.341189365
-0.2008108079 1.308406605 -0.4980892468
0.812405904 1.509789968 -0.7003121532
0.5286735282 2.390046255 -1.094145083
-0.2795562675 2.18200424 -0.9432250824
0.3253113036 0.8347606179 -1.548420724
0.06813504387 1.846430007 -1.75443491
0.5747435443 2.168736999 -2.259964471
0.8156295712 1.31174253 -2.116012902
-0.3861906073 1.877134231 -1.720118804
-0.3853147065 0.8657915061 -1.496182325
0.9176124193 2.797360319 -0.9815104472
-0.5763881927 2.619187464 -0.7431862807
-0.5858569845 1.850273704 -0.2836287901
1.188281046 2.02255316 -0.5662383287
-0.7992281534 1.233475763 -1.935522281
-0.7557370778 2.091522976 -2.167168963
0.5247597132 0.8850574422 -2.682570188
-0.6202547066 0.8358667855 -2.544593009
-0.6627428174 1.270305583 -2.916324201
0.3833553032 1.334024135 -3.048020036
-0.5491947568 0.08758157527 -2.649343583
0.4012733216 0.1234098521 -2.807484801
0.2503232521 1.176789439 -3.835283954
-0.7208888195 1.106667762 -3.721114253
0.2938800808 2.392078601 -3.334467819
-0.7581411246 2.316852693 -3.252118128
CELLS 11 99
8 7 6 5 4 3 2 1 0
8 11 10 9 8 1 2 3 0
8 12 13 8 9 7 4 0 3
8 17 16 15 14 5 4 7 6
8 10 11 17 14 2 1 5 6
8 18 19 12 13 11 10 9 8
8 18 19 15 16 13 12 7 4
8 23 22 21 20 10 19 18 11
8 24 25 20 21 13 8 11 18
8 26 27 24 25 23 22 21 20
8 28 29 27 26 10 19 22 23
CELL_TYPES 11
12
12
12
12
12
12
12
12
12
12
12
POINT_DATA 30
SCALARS fixed int
LOOKUP_TABLE default
0
0
0
0
0
0
0
0
0
0
0
0
0
0
0
0
0
0
0
0
0
0
0
0
0
0
0
0
0
0
