# vtk DataFile Version 3.0
Mesquite Mesh
ASCII
DATASET UNSTRUCTURED_GRID
POINTS 30 double
0.286980884 -0.834528052 -1.583319435
0.7999724902 -0.227730932 -1.655018162
0.4330741488 0.5282415748 -1.399331024
0.1493351895 0.115919762 -1.441004021
-0.3458275557 -0.4908414832 -0.8336697241
0.9205485596 -0.1846072946 -0.8719743327
0.5261620169 0.5568172361 -0.9413416946
-0.2095381064 0.2786593856 -0.9557444354
0.3595554827 -0.4444452158 -2.531425304
0.1129358352 0.2972041036 -1.889801849
0.4439685831 1.322403491 -1.857282521
0.6967926894 0.660069624 -2.26118306
-0.269911784 0.4156938395 -1.78000255
-0.5618431603 -0.3263412055 -2.278317615
0.7545934212 1.21693858 -0.6871803667
-0.4018844361 1.015630639 -0.6283711675
-0.6286902027 0.2796131123 -0.4263163742
1.148147893 0.5151839901 -0.5454113196
-0.7114498416 0.6729583771 -2.125503744
-0.468056674 1.441902518 -1.832971727
0.557293245 0.6188020615 -2.532402113
-0.5993186468 0.6001451966 -2.403002935
-0.7499809111 0.9411321438 -2.512447353
0.3224117427 0.9227045192 -2.604137473
-0.4491726298 0.2494981519 -2.568260554
0.6013820146 0.1875921547 -2.743236293
0.3710182833 0.8352123685 -3.148513753
-0.6993763533 0.7799810619 -3.047022702
0.248721561 1.020756972 -3.588326825
-0.6804254059 0.92480092 -3.519830028
CELLS 12 108
8 7 6 5 4 3 2 1 0
8 11 10 9 8 1 2 3 0
8 12 13 8 9 7 4 0 3
8 17 16 15 14 5 4 7 6
8 10 11 17 14 2 1 5 6
8 18 19 12 13 11 10 9 8
8 18 19 15 16 13 12 7 4
8 23 22 21 20 10 19 18 11
8 24 25 20 21 13 8 11 18
8 26 27 24 25 23 22 21 20
8 28 29 27 26 10 19 22 23
8 28 29 13 8 26 27 24 25
CELL_TYPES 12
12
12
12
12
12
12
12
12
12
12
12
12
POINT_DATA 30
SCALARS fixed int
LOOKUP_TABLE default
0
0
0
0
0
0
0
0
0
0
0
0
0
0
0
0
0
0
0
0
0
0
0
0
0
0
0
0
0
0
