# vtk DataFile Version 3.0
Mesquite Mesh
ASCII
DATASET UNSTRUCTURED_GRID
POINTS 32 double
0.430465178 -0.1240754538 -1.876980316
1.12478013 0.2811629427 -1.646438305
0.7269078924 0.7774395194 -1.165011634
0.3720436478 0.6548144502 -1.295015572
-0.1460189276 0.04665757236 -1.109546131
1.20549862 0.3473896092 -0.5986163354
0.7934336421 0.9078475386 -0.6829763764
-0.08872078563 0.7294269221 -0.7472054556
0.3597652292 0.8149238263 -2.839353599
0.2377793896 1.170869084 -1.343395735
0.4978658025 1.422181505 -1.674767239
0.7495623084 1.266754286 -2.099514856
-0.1655251456 1.292861848 -1.276431797
-0.4431910542 0.8530358252 -2.579429401
0.708394353 1.558305809 -0.3615035691
-0.4403186533 1.183105532 -0.2800080877
-0.5083265386 0.4101023496 -0.4014807355
1.235058922 1.084110758 -0.2487108589
-0.7178375053 1.304321821 -2.058719812
-0.5114640351 1.55947755 -1.598360278
0.6796916856 1.485521771 -2.274923776
-0.4821412958 1.524334892 -2.216934779
-0.6204847043 1.866386512 -2.118022518
0.4234334097 1.786357354 -2.167443087
-0.2649319917 1.382986811 -2.465291581
0.7462182641 1.270371801 -2.618965404
0.4945745676 2.167853836 -2.424557825
-0.5943456116 2.265524347 -2.428331869
0.5045162399 2.611727597 -2.526755082
-0.403401963 2.680606119 -2.595190333
-0.1827871716 2.606925083 -1.333038739
0.5939957553 2.411229154 -1.191302161
CELLS 13 117
8 7 6 5 4 3 2 1 0
8 11 10 9 8 1 2 3 0
8 12 13 8 9 7 4 0 3
8 17 16 15 14 5 4 7 6
8 10 11 17 14 2 1 5 6
8 18 19 12 13 11 10 9 8
8 18 19 15 16 13 12 7 4
8 23 22 21 20 10 19 18 11
8 24 25 20 21 13 8 11 18
8 26 27 24 25 23 22 21 20
8 28 29 27 26 10 19 22 23
8 28 29 13 8 26 27 24 25
8 30 31 9 12 29 28 10 19
CELL_TYPES 13
12
12
12
12
12
12
12
12
12
12
12
12
12
POINT_DATA 32
SCALARS fixed int
LOOKUP_TABLE default
0
0
0
0
0
0
0
0
0
0
0
0
0
0
0
0
0
0
0
0
0
0
0
0
0
0
0
0
0
0
0
0
