# vtk DataFile Version 3.0
Mesquite Mesh
ASCII
DATASET UNSTRUCTURED_GRID
POINTS 32 double
0.08552275765 0.4471836611 -3.263312071
1.053139365 0.2994433122 -2.856333655
0.6239474082 0.6311323596 -2.270544543
0.1876950281 0.7989664845 -2.173479363
-0.5608862457 0.4502110972 -2.86737601
0.7290929872 -0.1908039272 -2.040591397
0.562365188 0.4687863695 -1.882718776
-0.2692331163 0.646719041 -1.980162315
0.4375440847 0.8608641999 -3.080108368
0.1827485338 1.519988416 -1.649075791
0.6510968855 1.658254795 -1.904885297
0.9749349825 1.312032084 -2.53322672
-0.3721816293 1.408551157 -1.659930832
-0.2298658167 0.9409286789 -2.787091883
0.6031149662 0.8717558696 -1.210529056
-0.5949869308 0.7007721922 -1.347352511
-0.965242453 0.2699797877 -1.928243273
0.9009364416 0.2178233787 -1.317105696
-0.4639331656 1.243477483 -2.440609911
-0.5270199103 1.483286481 -1.96374818
1.107094652 1.57487282 -2.603134295
-0.03827515092 1.497472486 -2.520469268
-0.1412567434 1.690388248 -2.350862192
0.8706254975 1.841973872 -2.306330748
0.1259986606 1.415965761 -2.74117376
0.9573371567 1.496225494 -2.938062704
0.5417751675 2.197878812 -2.724502405
-0.4994922431 1.908012888 -2.566241352
0.1434569933 2.369922408 -2.763354324
-0.7599991752 2.146714246 -2.627554372
-1.01121888 2.402119777 -2.70741062
-0.1719662424 2.670026476 -2.877777416
CELLS 14 126
8 7 6 5 4 3 2 1 0
8 11 10 9 8 1 2 3 0
8 12 13 8 9 7 4 0 3
8 17 16 15 14 5 4 7 6
8 10 11 17 14 2 1 5 6
8 18 19 12 13 11 10 9 8
8 18 19 15 16 13 12 7 4
8 23 22 21 20 10 19 18 11
8 24 25 20 21 13 8 11 18
8 26 27 24 25 23 22 21 20
8 28 29 27 26 10 19 22 23
8 28 29 13 8 26 27 24 25
8 30 31 9 12 29 28 10 19
8 31 30 4 0 28 29 13 8
CELL_TYPES 14
12
12
12
12
12
12
12
12
12
12
12
12
12
12
POINT_DATA 32
SCALARS fixed int
LOOKUP_TABLE default
0
0
0
0
0
0
0
0
0
0
0
0
0
0
0
0
0
0
0
0
0
0
0
0
0
0
0
0
0
0
0
0
