# vtk DataFile Version 3.0
Mesquite Mesh
ASCII
DATASET UNSTRUCTURED_GRID
POINTS 34 double
0.5044362023 0.4959661875 -3.398626277
1.135476057 0.3671479935 -2.713814388
0.5360818837 0.5634006693 -2.213868013
0.03126795155 0.6507155351 -2.208087382
-0.259697488 0.3540569375 -3.26629059
0.7778388159 -0.2833567913 -2.202738432
0.3937383067 0.3037229057 -1.903567499
-0.3760973978 0.4002004124 -2.296959797
0.5766890499 0.8796921977 -2.999554974
-0.1385710558 1.327877506 -1.653619359
0.3211688187 1.506937433 -1.74328836
0.904981539 1.259238603 -2.272449156
-0.6897162538 1.194710205 -1.899431272
-0.09386128142 0.901146232 -3.030528174
0.1702503834 0.4775776799 -1.213675038
-0.8810621267 0.2182853545 -1.871622465
-0.8802519195 -0.06107068143 -2.654907415
0.6215787366 -0.1091996892 -1.399258734
-0.4842560083 1.145054964 -2.702390018
-0.6830484555 1.276827922 -2.261129741
1.109599139 1.510029487 -2.183899252
0.1991677466 1.420177114 -2.57219991
0.05842847855 1.573706907 -2.397320215
0.9668913025 1.78877585 -2.0264707
0.2940801662 1.388345436 -2.765681907
1.311843342 1.403602596 -2.753598349
0.8419939456 2.172877383 -2.602649018
0.03423215579 1.81274727 -2.721690827
0.2566567136 2.216448618 -2.799197695
-0.6571010362 1.906132643 -2.869338257
-0.8675266319 2.177593313 -3.054989142
-0.09768565683 2.48731386 -3.024021835
0.7945620138 2.503373497 -3.430345663
1.087916618 1.010706003 -3.800079154
CELLS 15 135
8 7 6 5 4 3 2 1 0
8 11 10 9 8 1 2 3 0
8 12 13 8 9 7 4 0 3
8 17 16 15 14 5 4 7 6
8 10 11 17 14 2 1 5 6
8 18 19 12 13 11 10 9 8
8 18 19 15 16 13 12 7 4
8 23 22 21 20 10 19 18 11
8 24 25 20 21 13 8 11 18
8 26 27 24 25 23 22 21 20
8 28 29 27 26 10 19 22 23
8 28 29 13 8 26 27 24 25
8 30 31 9 12 29 28 10 19
8 31 30 4 0 28 29 13 8
8 32 33 25 26 31 0 8 28
CELL_TYPES 15
12
12
12
12
12
12
12
12
12
12
12
12
12
12
12
POINT_DATA 34
SCALARS fixed int
LOOKUP_TABLE default
0
0
0
0
0
0
0
0
0
0
0
0
0
0
0
0
0
0
0
0
0
0
0
0
0
0
0
0
0
0
0
0
0
0
