# vtk DataFile Version 3.0
Mesquite Mesh
ASCII
DATASET UNSTRUCTURED_GRID
POINTS 36 double
0.5591258921 0.3888245019 -3.442708022
1.236597078 0.4116892498 -2.741808222
0.5900675807 0.5531170696 -2.205993622
0.1083249057 0.586952414 -2.239773548
-0.1224033311 0.1797891142 -3.26152296
0.9623269795 -0.2648203782 -2.218459835
0.4656519359 0.2899512334 -1.910602946
-0.3164104699 0.2700316847 -2.34131407
0.6393669615 0.8066535001 -3.047773078
-0.1597576763 1.296068004 -1.721825921
0.3153807113 1.521922712 -1.7844042
1.013421706 1.209692202 -2.315345126
-0.6005265286 1.118090702 -2.015145251
0.07568781528 0.8791014089 -3.049712225
0.2574357205 0.4029797565 -1.272356139
-0.7889311376 0.1152619076 -1.984960083
-0.7103420036 -0.2001443007 -2.775941393
0.7793438199 -0.1313837112 -1.469322626
-0.2912672815 1.12418373 -2.778577173
-0.5080994982 1.209911289 -2.403777051
1.479594194 1.481955051 -2.193597982
0.6245510165 1.461513625 -2.548661872
0.4955622146 1.658618982 -2.360899229
1.190974593 1.972928681 -1.943121064
0.568812682 1.425008787 -2.80145542
1.327510377 1.316623972 -2.898858894
0.8325011389 2.308723644 -2.775447128
0.4636173155 1.861383018 -2.768682737
0.1868405445 2.161152304 -2.984622535
-0.4698297397 1.670547714 -2.990611451
-0.9236551721 1.731964378 -3.242491955
-0.3002057782 2.268653821 -3.263667698
0.9063050985 2.500831935 -3.573115512
1.413204828 1.169634569 -3.800219856
2.173236329 1.823041843 -3.17522508
1.731920025 2.66255014 -2.864169775
CELLS 16 144
8 7 6 5 4 3 2 1 0
8 11 10 9 8 1 2 3 0
8 12 13 8 9 7 4 0 3
8 17 16 15 14 5 4 7 6
8 10 11 17 14 2 1 5 6
8 18 19 12 13 11 10 9 8
8 18 19 15 16 13 12 7 4
8 23 22 21 20 10 19 18 11
8 24 25 20 21 13 8 11 18
8 26 27 24 25 23 22 21 20
8 28 29 27 26 10 19 22 23
8 28 29 13 8 26 27 24 25
8 30 31 9 12 29 28 10 19
8 31 30 4 0 28 29 13 8
8 32 33 25 26 31 0 8 28
8 34 35 32 33 20 23 26 25
CELL_TYPES 16
12
12
12
12
12
12
12
12
12
12
12
12
12
12
12
12
POINT_DATA 36
SCALARS fixed int
LOOKUP_TABLE default
0
0
0
0
0
0
0
0
0
0
0
0
0
0
0
0
0
0
0
0
0
0
0
0
0
0
0
0
0
0
0
0
0
0
0
0
