# vtk DataFile Version 3.0
Mesquite Mesh
ASCII
DATASET UNSTRUCTURED_GRID
POINTS 36 double
0.8303320265 -0.2759683176 -3.788623026
1.236660317 0.7100225457 -2.018941279
0.6624028405 0.6518509519 -2.121632043
0.4525845304 0.4368152827 -2.633298965
0.1378194412 0.05293777236 -2.897070661
0.6558115511 -0.2145729702 -1.74858331
0.3974444434 0.2700829203 -1.675965553
0.1111585355 0.6064307604 -1.989874517
0.6108912538 0.6161179934 -2.998472645
-0.1533236634 1.366752646 -1.777705424
0.2517959723 1.517315334 -1.845416985
0.9457192846 1.363375654 -2.13944772
-0.7437896715 1.200646467 -1.914655454
-0.09045092953 0.7022174045 -2.89126994
0.04738669868 0.7838219583 -1.237933991
-0.4649112355 1.050861221 -0.5627218242
-0.5335470314 1.004749533 0.06480070434
0.5164038471 0.2759916524 -1.040490483
-0.6395635084 0.9111888893 -2.662203152
-0.8662002154 1.113763342 -2.299538711
1.323727814 1.498373408 -2.272129281
0.272742789 1.328682001 -2.516067224
0.0399171312 1.476646496 -2.393563782
1.091320569 1.952210889 -2.116830489
0.07131289128 1.234002099 -2.730670364
1.129487785 1.187693907 -2.853140219
0.5855521352 2.013902608 -2.664944509
-0.2039077503 1.558503958 -2.73655751
0.01727295488 1.955384679 -2.836899662
-1.062370208 1.433743469 -2.927857382
-1.182451638 1.684969315 -3.167670282
-0.3073701675 2.049044347 -3.141432582
0.8793595105 2.128256343 -3.344340896
1.36012508 0.6357726333 -3.732325963
2.017216922 1.460336108 -3.191065959
1.657587368 2.387577835 -2.871559081
CELLS 16 144
8 7 6 5 4 3 2 1 0
8 11 10 9 8 1 2 3 0
8 12 13 8 9 7 4 0 3
8 17 16 15 14 5 4 7 6
8 10 11 17 14 2 1 5 6
8 18 19 12 13 11 10 9 8
8 18 19 15 16 13 12 7 4
8 23 22 21 20 10 19 18 11
8 24 25 20 21 13 8 11 18
8 26 27 24 25 23 22 21 20
8 28 29 27 26 10 19 22 23
8 28 29 13 8 26 27 24 25
8 30 31 9 12 29 28 10 19
8 31 30 4 0 28 29 13 8
8 32 33 25 26 31 0 8 28
8 34 35 32 33 20 23 26 25
CELLS 17 153
8 7 6 5 4 3 2 1 0
8 11 10 9 8 1 2 3 0
8 12 13 8 9 7 4 0 3
8 17 16 15 14 5 4 7 6
8 10 11 17 14 2 1 5 6
8 18 19 12 13 11 10 9 8
8 18 19 15 16 13 12 7 4
8 23 22 21 20 10 19 18 11
8 24 25 20 21 13 8 11 18
8 26 27 24 25 23 22 21 20
8 28 29 27 26 10 19 22 23
8 28 29 13 8 26 27 24 25
8 30 31 9 12 29 28 10 19
8 31 30 4 0 28 29 13 8
8 32 33 25 26 31 0 8 28
8 34 35 32 33 20 23 26 25
8 23 20 16 15 10 11 17 14
CELL_TYPES 17
12
12
12
12
12
12
12
12
12
12
12
12
12
12
12
12
12
POINT_DATA 36
SCALARS fixed int
LOOKUP_TABLE default
0
0
0
0
0
0
0
0
0
0
0
0
0
0
0
0
0
0
0
0
0
0
0
0
0
0
0
0
0
0
0
0
0
0
0
0
