# vtk DataFile Version 3.0
Mesquite Mesh
ASCII
DATASET UNSTRUCTURED_GRID
POINTS 14 double
-5.503540206e-06 3.936823336e-21 -5.518252272e-21
0.9473892221 -4.263814144e-16 2.673230761e-16
0.9557810816 0.9937643065 1.057875907e-16
0.01054721446 1.010194292 5.686485797e-17
-0.4724025301 0.01162936869 0.8190476681
0.6092743113 0.009055771401 1.053544875
0.6191555358 0.9880638928 1.053785674
-0.4634317237 1.006074525 0.8191057772
-0.4724025301 0.01162936869 -0.8190476681
-0.4634317237 1.006074525 -0.8191057772
0.6191555358 0.9880638928 -1.053785674
0.6092743113 0.009055771401 -1.053544875
-1.206491115 1.005188805 -1.639699291e-16
-1.216343676 0.02587832159 -1.035192276e-16
CELLS 3 27
8 7 6 5 4 3 2 1 0
8 11 10 9 8 1 2 3 0
8 12 13 8 9 7 4 0 3
CELL_TYPES 3
12
12
12
POINT_DATA 14
SCALARS fixed int
LOOKUP_TABLE default
0
0
0
0
0
0
0
0
0
0
0
0
0
0
