# vtk DataFile Version 3.0
Mesquite Mesh
ASCII
DATASET UNSTRUCTURED_GRID
POINTS 18 double
-5.503540206e-06 3.936823336e-21 -5.518252272e-21
0.9473892221 -4.263814144e-16 2.673230761e-16
0.9548719758 0.994437441 -7.631631187e-06
0.01005200177 1.010670479 0.0001457911323
-0.4716050662 0.01240183921 0.8193900936
0.5999637199 0.008657438004 1.050601575
0.609177344 0.9908418803 1.051040585
-0.4620657823 1.007238358 0.8196666083
-0.4731528687 0.01271526206 -0.8187655227
-0.4637201213 1.007368291 -0.8187027903
0.617603913 0.9895187787 -1.053873848
0.608643942 0.01030463201 -1.053589531
-1.206683733 1.006882145 0.001206857274
-1.216353195 0.02755055007 0.001013114582
0.3725153517 0.9969035151 2.012230353
-0.64278877 1.008637226 1.791785384
-0.6523863173 0.0137155354 1.791366325
0.3635244136 0.005902507984 2.011648816
CELLS 4 36
8 7 6 5 4 3 2 1 0
8 11 10 9 8 1 2 3 0
8 12 13 8 9 7 4 0 3
8 17 16 15 14 5 4 7 6
CELL_TYPES 4
12
12
12
12
POINT_DATA 18
SCALARS fixed int
LOOKUP_TABLE default
0
0
0
0
0
0
0
0
0
0
0
0
0
0
0
0
0
0
