# vtk DataFile Version 3.0
Mesquite Mesh
ASCII
DATASET UNSTRUCTURED_GRID
POINTS 18 double
0.1641049638 -0.001334623687 -0.225596618
0.947394906 -3.763026005e-08 7.839207125e-06
0.7053842355 0.9971454725 0.1480120091
0.1772937738 0.9957070348 -0.1221308659
-0.5864133924 0.06052940488 0.7067409634
0.4773874197 0.01154498677 0.8099732107
0.4376771079 1.033931126 0.8604726004
-0.6131603807 1.019099664 0.6646405234
0.2347246899 0.0698523813 -1.00667802
0.1993959797 1.020376217 -0.9765795136
1.425109405 1.104590018 -0.03663246435
1.557809284 0.1694400417 -0.193928009
-0.883482876 1.033071727 -0.382202822
-0.9140307854 0.07434997089 -0.3971019626
1.043391316 1.032835121 1.368217054
-0.1274672828 1.037760195 1.817727162
-0.1202319565 0.06381020785 1.796857647
1.064673373 0.1122562312 1.368346094
CELLS 5 45
8 7 6 5 4 3 2 1 0
8 11 10 9 8 1 2 3 0
8 12 13 8 9 7 4 0 3
8 17 16 15 14 5 4 7 6
8 10 11 17 14 2 1 5 6
CELL_TYPES 5
12
12
12
12
12
POINT_DATA 18
SCALARS fixed int
LOOKUP_TABLE default
0
0
0
0
0
0
0
0
0
0
0
0
0
0
0
0
0
0
