# vtk DataFile Version 3.0
Mesquite Mesh
ASCII
DATASET UNSTRUCTURED_GRID
POINTS 20 double
0.2496147512 0.02188321367 -0.4155436823
1.12920089 0.05655680088 -0.8391072016
0.8912472776 1.063580681 -0.5433651397
0.2321407102 1.053795201 -0.468107953
-0.1762687935 0.05493417664 0.2111007383
1.064104459 0.1178685344 -0.0405863665
0.9190409734 1.072598652 0.004475424936
-0.2169554517 1.021147782 0.2447929599
0.2463470651 0.1213116458 -1.083611522
0.1876429295 1.085139498 -0.9910779582
1.30530032 1.271224613 -1.221057781
1.491767771 0.3371920278 -1.362124238
-0.5289093698 1.068173572 -1.347807322
-0.4852793111 0.09433432463 -1.337687326
1.608966794 1.175962791 0.3728153689
0.5769704968 1.077545418 1.037763672
0.6778222198 0.1465852975 1.012849672
1.764378037 0.2274134754 0.2385967285
0.5834831263 0.3167307364 -2.106862987
0.4922727551 1.241102517 -2.009736235
CELLS 6 54
8 7 6 5 4 3 2 1 0
8 11 10 9 8 1 2 3 0
8 12 13 8 9 7 4 0 3
8 17 16 15 14 5 4 7 6
8 10 11 17 14 2 1 5 6
8 18 19 12 13 11 10 9 8
CELL_TYPES 6
12
12
12
12
12
12
POINT_DATA 20
SCALARS fixed int
LOOKUP_TABLE default
0
0
0
0
0
0
0
0
0
0
0
0
0
0
0
0
0
0
0
0
