# vtk DataFile Version 3.0
Mesquite Mesh
ASCII
DATASET UNSTRUCTURED_GRID
POINTS 20 double
0.2042190241 0.01448714041 -0.5358615794
0.9836472009 0.04397426687 -1.153751899
0.6627324895 0.9993525145 -0.8084842377
0.2163370566 1.017268633 -0.6378046293
-0.07393637111 0.09562742115 -0.09379460601
0.9693089397 0.1389647935 -0.2663327484
0.7269426299 1.122752429 -0.1974144673
-0.1146938681 1.119070341 -0.1414903494
0.3035601405 0.08258059626 -1.235701485
0.2076423719 1.090482996 -1.130294363
0.8126651961 1.353510613 -1.478761819
1.101430757 0.503715415 -1.711940843
-0.3213839123 1.164315804 -1.106865379
-0.2670694601 0.1333881355 -1.202499715
1.163919827 1.299284629 0.1040979671
-0.4776823888 1.105936837 0.2693344802
-0.4135100009 0.1928392389 0.2932533678
1.357655884 0.3886232 0.1017860619
-0.6660300568 0.251209263 -1.55785843
-0.7548899928 1.171259099 -1.483437156
CELLS 7 63
8 7 6 5 4 3 2 1 0
8 11 10 9 8 1 2 3 0
8 12 13 8 9 7 4 0 3
8 17 16 15 14 5 4 7 6
8 10 11 17 14 2 1 5 6
8 18 19 12 13 11 10 9 8
8 18 19 15 16 13 12 7 4
CELL_TYPES 7
12
12
12
12
12
12
12
POINT_DATA 20
SCALARS fixed int
LOOKUP_TABLE default
0
0
0
0
0
0
0
0
0
0
0
0
0
0
0
0
0
0
0
0
