# vtk DataFile Version 3.0
Mesquite Mesh
ASCII
DATASET UNSTRUCTURED_GRID
POINTS 24 double
0.2042190241 0.01448714041 -0.5358615794
0.9836472009 0.04397426687 -1.153751899
0.6587838983 1.02211654 -0.8216386191
0.2152724238 1.033168294 -0.6358847531
-0.08147683461 0.1316082158 -0.08696521143
0.9924775574 0.186663406 -0.2835127175
0.734534035 1.171629537 -0.2526621684
-0.1262773005 1.157396383 -0.1635717578
0.2942995175 0.1115484657 -1.201077003
0.197679572 1.138283044 -1.095526749
0.7727911682 1.401260239 -1.477603128
1.065600352 0.5394275006 -1.700647938
-0.3217904254 1.211249966 -1.045817889
-0.2314570752 0.1753059087 -1.14849959
1.155572854 1.398563971 0.03513954166
-0.4675356741 1.184390979 0.2587934864
-0.4097425808 0.2655168344 0.3060280327
1.374522536 0.4956769918 0.06338807468
-0.6216421948 0.2791862139 -1.498375443
-0.73184067 1.204761715 -1.431892347
0.7622285742 0.6417168642 -2.557703456
-0.513378667 0.3831800073 -2.434174323
-0.644687929 1.319470334 -2.351633977
0.5708642398 1.560254842 -2.395357507
CELLS 8 72
8 7 6 5 4 3 2 1 0
8 11 10 9 8 1 2 3 0
8 12 13 8 9 7 4 0 3
8 17 16 15 14 5 4 7 6
8 10 11 17 14 2 1 5 6
8 18 19 12 13 11 10 9 8
8 18 19 15 16 13 12 7 4
8 23 22 21 20 10 19 18 11
CELL_TYPES 8
12
12
12
12
12
12
12
12
POINT_DATA 24
SCALARS fixed int
LOOKUP_TABLE default
0
0
0
0
0
0
0
0
0
0
0
0
0
0
0
0
0
0
0
0
0
0
0
0
