# vtk DataFile Version 3.0
Mesquite Mesh
ASCII
DATASET UNSTRUCTURED_GRID
POINTS 26 double
0.2079018134 -0.01738591825 -0.5684972961
0.9864788985 0.04184127198 -1.152775762
0.6293454729 1.004522931 -0.8451804318
0.2072622643 0.9764719643 -0.6782196951
-0.1132312118 0.1305521664 -0.1073068357
1.01232651 0.2362445265 -0.29841114
0.7088282452 1.188355446 -0.3104188581
-0.1319538194 1.138629672 -0.2157232177
0.3650490393 0.003855383899 -1.312785272
0.1958040104 1.038788564 -1.131815727
0.6941714987 1.463867777 -1.478090129
0.9838460307 0.6512219053 -1.733624787
-0.2808155939 1.122607294 -1.071616158
-0.2657341181 0.07382788855 -1.214296653
1.106043457 1.502569065 -0.03518470776
-0.457834304 1.296583132 0.1909841997
-0.4512421795 0.3957615419 0.2848097362
1.373234902 0.6314507395 0.0241363381
-0.6611964175 0.4887521538 -1.530786207
-0.668395558 1.362747093 -1.421618024
0.6956364871 0.418868802 -2.580071016
-0.5437755065 0.2620682617 -2.43408647
-0.629053553 1.305910774 -2.440821125
0.5304768563 1.471942693 -2.507642782
-0.472712853 -0.6150315958 -2.042240246
0.4776409617 -0.5009830124 -2.224805961
CELLS 9 81
8 7 6 5 4 3 2 1 0
8 11 10 9 8 1 2 3 0
8 12 13 8 9 7 4 0 3
8 17 16 15 14 5 4 7 6
8 10 11 17 14 2 1 5 6
8 18 19 12 13 11 10 9 8
8 18 19 15 16 13 12 7 4
8 23 22 21 20 10 19 18 11
8 24 25 20 21 13 8 11 18
CELL_TYPES 9
12
12
12
12
12
12
12
12
12
POINT_DATA 26
SCALARS fixed int
LOOKUP_TABLE default
0
0
0
0
0
0
0
0
0
0
0
0
0
0
0
0
0
0
0
0
0
0
0
0
0
0
