# vtk DataFile Version 3.0
Mesquite Mesh
ASCII
DATASET UNSTRUCTURED_GRID
POINTS 28 double
0.1928790937 0.0165408493 -0.6886655693
0.9724655214 0.07377109276 -1.252730216
0.5984308918 1.022896092 -1.011093686
0.189478162 0.976793365 -0.8497336212
-0.149669684 0.2095597122 -0.210890844
0.9987532685 0.3387873919 -0.4012234642
0.6740425175 1.259881403 -0.5003505567
-0.1503134975 1.187510803 -0.4071941599
0.3525501045 -0.01540516495 -1.462695843
0.1762829713 0.9984858789 -1.304939905
0.6379633421 1.472985124 -1.663980703
0.940857024 0.675291839 -1.875532863
-0.2749434186 1.075782012 -1.242709771
-0.3333949553 0.04866745372 -1.358206835
1.048465111 1.653565127 -0.2674695181
-0.4692693708 1.465190248 -0.03811175348
-0.4902467059 0.5933236717 0.1584125231
1.340422981 0.8109090823 -0.114708965
-0.7041924057 0.5534772482 -1.661575362
-0.6342100604 1.409577615 -1.601476195
0.588800875 0.4760092856 -2.569435314
-0.5368508217 0.3924711456 -2.427777382
-0.6217651295 1.109854627 -2.913931364
0.4128787871 1.20330111 -3.030292616
-0.5056572795 -0.4580899499 -2.561149185
0.4603478363 -0.4041646783 -2.722107329
0.3560952958 0.2306183736 -3.635065615
-0.6125573835 0.1466060913 -3.525164321
CELLS 10 90
8 7 6 5 4 3 2 1 0
8 11 10 9 8 1 2 3 0
8 12 13 8 9 7 4 0 3
8 17 16 15 14 5 4 7 6
8 10 11 17 14 2 1 5 6
8 18 19 12 13 11 10 9 8
8 18 19 15 16 13 12 7 4
8 23 22 21 20 10 19 18 11
8 24 25 20 21 13 8 11 18
8 26 27 24 25 23 22 21 20
CELL_TYPES 10
12
12
12
12
12
12
12
12
12
12
POINT_DATA 28
SCALARS fixed int
LOOKUP_TABLE default
0
0
0
0
0
0
0
0
0
0
0
0
0
0
0
0
0
0
0
0
0
0
0
0
0
0
0
0
