# vtk DataFile Version 3.0
Mesquite Mesh
ASCII
DATASET UNSTRUCTURED_GRID
POINTS 24 double
0.1697578952 -0.02481648258 -0.5404083409
0.9167254336 0.07024738403 -1.009436164
0.6378650541 1.044924352 -0.7526558006
0.1862550893 1.002881319 -0.5614556801
-0.1308426413 -0.0191078723 -0.08723642395
0.96378616 0.1057541863 -0.1695749573
0.7662262308 1.116939508 -0.1288659144
-0.1810672485 1.025335218 -0.0639104181
0.2661487827 0.09195619931 -1.214628692
0.1613436533 1.117566475 -1.075539272
0.7411405029 1.357979571 -1.49402562
0.961247386 0.4752404134 -1.653268668
-0.3490676178 1.128290804 -0.9954474516
-0.3372312551 0.0250496334 -1.148639258
1.18700045 1.251289465 0.1972191913
-0.5198841261 1.018603121 0.3847282099
-0.4918578107 0.08581828228 0.3563524933
1.387374072 0.3449976044 0.1676580608
-0.6845342402 0.2856775363 -1.464989325
-0.7327185085 1.205512647 -1.373985288
0.6471158595 0.1266104684 -2.494645327
-0.4840377112 -0.00414989534 -2.366574959
-0.5993745372 1.102638903 -2.411567571
0.4735365189 1.26066144 -2.491214388
CELLS 8 72
8 7 6 5 4 3 2 1 0
8 11 10 9 8 1 2 3 0
8 12 13 8 9 7 4 0 3
8 17 16 15 14 5 4 7 6
8 10 11 17 14 2 1 5 6
8 18 19 12 13 11 10 9 8
8 18 19 15 16 13 12 7 4
8 23 22 21 20 10 19 18 11
CELL_TYPES 8
12
12
12
12
12
12
12
12
POINT_DATA 24
SCALARS fixed int
LOOKUP_TABLE default
0
0
0
0
0
0
0
0
0
0
0
0
0
0
0
0
0
0
0
0
0
0
0
0
