# vtk DataFile Version 3.0
Mesquite Mesh
ASCII
DATASET UNSTRUCTURED_GRID
POINTS 30 double
0.02110094563 0.6687843977 -1.090554728
0.7592308814 0.6302226522 -1.520318004
0.3417735008 1.639794406 -1.543799906
-0.08203821161 1.645921007 -1.406112249
-0.3337647141 0.7837696857 -0.6803593682
0.7774687038 0.9393762107 -0.8297736668
0.4287422798 1.892973143 -1.046450551
-0.4412694343 1.773597875 -0.9576641702
0.2092391053 0.4331904358 -1.696198751
-0.0516464757 1.530161086 -1.870128178
0.4578851896 1.758277692 -2.34871303
0.8040985966 0.9129477427 -2.216423702
-0.49623893 1.504853383 -1.833876265
-0.4214050239 0.4079644856 -1.632607723
0.8491411516 2.170313616 -0.8138388505
-0.7912965613 1.884703117 -0.5840559639
-0.6682516312 1.007671476 -0.3135417457
1.126139117 1.317219398 -0.5690965452
-0.798685679 0.6861780133 -2.065126965
-0.8580883266 1.549009397 -2.254131197
0.5540172572 0.3802565973 -2.732549041
-0.5567123599 0.2447006667 -2.616518065
-0.6368079242 0.6604857481 -2.992377256
0.3989917363 0.815461555 -3.099774409
-0.4477162658 -0.5245143299 -2.682789708
0.4883790292 -0.4286490028 -2.767279436
0.2655087942 0.5212832727 -3.907463477
-0.6852539158 0.3776665927 -3.80646671
0.1828455949 1.689346107 -3.485301615
-0.893145255 1.500559389 -3.395897213
CELLS 11 99
8 7 6 5 4 3 2 1 0
8 11 10 9 8 1 2 3 0
8 12 13 8 9 7 4 0 3
8 17 16 15 14 5 4 7 6
8 10 11 17 14 2 1 5 6
8 18 19 12 13 11 10 9 8
8 18 19 15 16 13 12 7 4
8 23 22 21 20 10 19 18 11
8 24 25 20 21 13 8 11 18
8 26 27 24 25 23 22 21 20
8 28 29 27 26 10 19 22 23
CELL_TYPES 11
12
12
12
12
12
12
12
12
12
12
12
POINT_DATA 30
SCALARS fixed int
LOOKUP_TABLE default
0
0
0
0
0
0
0
0
0
0
0
0
0
0
0
0
0
0
0
0
0
0
0
0
0
0
0
0
0
0
