# vtk DataFile Version 3.0
Mesquite Mesh
ASCII
DATASET UNSTRUCTURED_GRID
POINTS 32 double
0.07236058587 -0.4217721444 -1.025229318
0.8488801256 -0.08070743482 -1.62582626
0.389675063 0.7312245767 -1.241408387
0.005706868472 0.6025574242 -1.06508637
-0.2795511603 -0.2042596944 -0.6848120373
0.8651990302 0.07885500303 -0.7363786356
0.4790936759 1.038512756 -0.6981937444
-0.4076725707 0.8028304397 -0.5792380094
0.2039911546 -0.0935295459 -2.749843137
0.06604561336 0.9656399825 -1.46083982
0.3813520727 1.009044437 -1.872266649
0.7117809071 0.6139672095 -2.36255545
-0.4232986148 0.8830387075 -1.470991231
-0.5425058398 -0.1065899845 -2.52349946
0.8704079268 1.305722934 -0.4506453999
-0.765373876 0.9896475414 -0.1734027019
-0.7094642056 0.07302263798 -0.2067584452
1.187247795 0.4672762922 -0.4593500341
-0.8549314854 0.4301174444 -2.246068877
-0.6675945061 0.8226668021 -1.853124754
0.5519026426 0.790692992 -2.61771533
-0.6126552953 0.6596267557 -2.458457193
-0.6638831194 0.9150409133 -2.444300064
0.3997287937 1.163721583 -2.517574615
-0.5430042378 0.5570578898 -2.633838338
0.4507444204 0.5611859485 -2.808859729
0.1779360776 1.538250634 -3.025414316
-0.8229792644 1.415971578 -2.872454782
0.009065661956 1.883901147 -3.193116804
-0.8646260734 1.784640759 -3.089639776
-0.7060812418 1.815655074 -2.247676112
-0.07215226839 1.881737125 -2.201125602
CELLS 13 117
8 7 6 5 4 3 2 1 0
8 11 10 9 8 1 2 3 0
8 12 13 8 9 7 4 0 3
8 17 16 15 14 5 4 7 6
8 10 11 17 14 2 1 5 6
8 18 19 12 13 11 10 9 8
8 18 19 15 16 13 12 7 4
8 23 22 21 20 10 19 18 11
8 24 25 20 21 13 8 11 18
8 26 27 24 25 23 22 21 20
8 28 29 27 26 10 19 22 23
8 28 29 13 8 26 27 24 25
8 30 31 9 12 29 28 10 19
CELL_TYPES 13
12
12
12
12
12
12
12
12
12
12
12
12
12
POINT_DATA 32
SCALARS fixed int
LOOKUP_TABLE default
0
0
0
0
0
0
0
0
0
0
0
0
0
0
0
0
0
0
0
0
0
0
0
0
0
0
0
0
0
0
0
0
