# vtk DataFile Version 3.0
Mesquite Mesh
ASCII
DATASET UNSTRUCTURED_GRID
POINTS 34 double
0.4400353761 -1.238462106 -3.180625216
0.940585335 -0.1625975291 -2.30166371
0.1837024406 0.646983439 -1.54125948
-0.0670138486 0.2754667453 -1.929207173
-0.4157281276 -0.6329057539 -2.449959249
0.8333581285 -0.1822799698 -1.668258782
0.1170937509 0.8025719853 -1.060339796
-0.7247656909 0.4814051323 -1.429483903
0.2295222221 0.03845227349 -2.684863095
-0.1754744272 1.581440545 -1.436599761
0.1373281838 1.422632662 -1.738713435
0.5550879256 0.8301289689 -2.267891889
-0.7994489634 1.50340277 -1.419217283
-0.4313330333 0.2474231428 -2.493414953
0.3913076574 1.085530057 -0.5806100306
-1.272060463 0.5396068481 -0.9129166622
-0.9300081682 -0.5384079498 -1.785441162
0.9455468589 0.1773450358 -1.000777699
-0.8019057806 0.770631857 -2.240248999
-0.9651033973 1.392253958 -1.709924545
0.4152385655 0.9637415804 -2.415579207
-0.488583495 0.967525309 -2.36454244
-0.7367192802 1.316681777 -2.151470248
0.2201916043 1.272437083 -2.301403338
-0.2889603337 0.8405451342 -2.637439024
0.5876356687 0.5528818226 -2.798167602
0.2845098452 1.2892174 -2.956322878
-0.6504402279 1.433792505 -2.83200199
-0.01029028438 1.434014776 -3.136174682
-0.7734862367 1.639530795 -3.081204992
-0.5877428855 1.794716333 -3.431750085
0.1905833308 1.406637946 -3.54451545
0.8020788484 1.287395862 -3.680695479
0.9433470571 -0.5839927458 -3.320563593
CELLS 15 135
8 7 6 5 4 3 2 1 0
8 11 10 9 8 1 2 3 0
8 12 13 8 9 7 4 0 3
8 17 16 15 14 5 4 7 6
8 10 11 17 14 2 1 5 6
8 18 19 12 13 11 10 9 8
8 18 19 15 16 13 12 7 4
8 23 22 21 20 10 19 18 11
8 24 25 20 21 13 8 11 18
8 26 27 24 25 23 22 21 20
8 28 29 27 26 10 19 22 23
8 28 29 13 8 26 27 24 25
8 30 31 9 12 29 28 10 19
8 31 30 4 0 28 29 13 8
8 32 33 25 26 31 0 8 28
CELL_TYPES 15
12
12
12
12
12
12
12
12
12
12
12
12
12
12
12
POINT_DATA 34
SCALARS fixed int
LOOKUP_TABLE default
0
0
0
0
0
0
0
0
0
0
0
0
0
0
0
0
0
0
0
0
0
0
0
0
0
0
0
0
0
0
0
0
0
0
