# vtk DataFile Version 3.0
Mesquite Mesh
ASCII
DATASET UNSTRUCTURED_GRID
POINTS 36 double
0.7214361759 -1.274486947 -3.097021863
1.202638933 -0.1205834589 -2.322875542
0.5623647324 0.6604552436 -1.593957276
0.3429195309 0.2057047435 -1.996644567
-0.1183607048 -0.6838953803 -2.334116975
1.102342825 -0.1589092123 -1.645184982
0.4907268695 0.7913614163 -1.095372007
-0.2881751954 0.4127767036 -1.435549797
0.4713993033 0.0291256798 -2.626771016
0.1933988264 1.53758547 -1.615342687
0.5535284024 1.536380093 -1.90261096
0.8996264943 0.9290013389 -2.377402306
-0.4416182283 1.409550692 -1.451788904
-0.2014676656 0.1711940015 -2.392802233
0.7478518098 1.090336124 -0.6032047056
-0.790363473 0.4570913889 -0.849215084
-0.5520360501 -0.5516590338 -1.606207453
1.25345916 0.1948720094 -1.012714181
-0.5222071318 0.6438778374 -2.176374504
-0.6277012984 1.240780646 -1.700807123
0.7331631171 0.9706796673 -2.477588932
-0.2549297901 0.8996600141 -2.304837201
-0.438321291 1.170464312 -2.116863699
0.6857020059 1.3556275 -2.456739721
-0.1629919036 0.7913174273 -2.564119187
0.6697224978 0.556781776 -2.773171759
0.2924360488 1.171132682 -2.930863369
-0.582112047 1.205465244 -2.687894736
-0.01937235427 1.218442537 -3.103908032
-0.7814644395 1.407467768 -2.938772998
-0.6069527033 1.529171114 -3.362035262
0.2271213867 1.152598045 -3.550837818
0.8413653484 1.228449242 -3.656256703
1.278136023 -0.3488594193 -3.280519098
1.489660812 0.1073230648 -2.937784676
1.265198427 1.424353908 -3.163643356
CELLS 16 144
8 7 6 5 4 3 2 1 0
8 11 10 9 8 1 2 3 0
8 12 13 8 9 7 4 0 3
8 17 16 15 14 5 4 7 6
8 10 11 17 14 2 1 5 6
8 18 19 12 13 11 10 9 8
8 18 19 15 16 13 12 7 4
8 23 22 21 20 10 19 18 11
8 24 25 20 21 13 8 11 18
8 26 27 24 25 23 22 21 20
8 28 29 27 26 10 19 22 23
8 28 29 13 8 26 27 24 25
8 30 31 9 12 29 28 10 19
8 31 30 4 0 28 29 13 8
8 32 33 25 26 31 0 8 28
8 34 35 32 33 20 23 26 25
CELL_TYPES 16
12
12
12
12
12
12
12
12
12
12
12
12
12
12
12
12
POINT_DATA 36
SCALARS fixed int
LOOKUP_TABLE default
0
0
0
0
0
0
0
0
0
0
0
0
0
0
0
0
0
0
0
0
0
0
0
0
0
0
0
0
0
0
0
0
0
0
0
0
