# vtk DataFile Version 3.0
Mesquite Mesh
ASCII
DATASET UNSTRUCTURED_GRID
POINTS 14 double
-5.7613554e-06 5.690741535e-22 -2.321939815e-21
0.9390948713 -7.353737525e-17 1.659736988e-17
0.9539554326 0.9923939931 -1.386692823e-14
0.01631474812 1.011019507 2.986103331e-14
-0.4720804762 0.01549790962 0.8187227832
0.6079595698 0.008401609714 1.054919417
0.6254303626 0.9869203988 1.054118885
-0.4586781143 1.00849633 0.818907651
-0.4720804762 0.01549790962 -0.8187227832
-0.4586781143 1.00849633 -0.818907651
0.6254303626 0.9869203988 -1.054118885
0.6079595698 0.008401609714 -1.054919417
-1.200717071 1.007476977 1.291187006e-15
-1.212182751 0.0284360914 6.885858266e-17
CELLS 3 27
8 7 6 5 4 3 2 1 0
8 11 10 9 8 1 2 3 0
8 12 13 8 9 7 4 0 3
CELL_TYPES 3
12
12
12
POINT_DATA 14
SCALARS fixed int
LOOKUP_TABLE default
0
0
0
0
0
0
0
0
0
0
0
0
0
0
