# vtk DataFile Version 3.0
Mesquite Mesh
ASCII
DATASET UNSTRUCTURED_GRID
POINTS 18 double
-5.7613554e-06 5.690741535e-22 -2.321939815e-21
0.9390948713 -7.353737525e-17 1.659736988e-17
0.9553780186 0.9931963355 0.0001892924441
0.01122507556 1.011495293 0.0006724550209
-0.471605436 0.01393255438 0.8208074551
0.5977325684 0.007801102823 1.05263866
0.611305827 0.9894269649 1.052401462
-0.4600117126 1.008771614 0.8207083379
-0.4733531013 0.01467800616 -0.8195343012
-0.4620431851 1.009490238 -0.8180847642
0.6190618783 0.9883745379 -1.054330984
0.6058334414 0.009390808666 -1.054737122
-1.204082514 1.01047119 0.002210863879
-1.21620182 0.03100847869 0.001578638542
0.3921767408 0.9935588073 2.023846431
-0.6499005995 1.009862467 1.797817946
-0.6654809472 0.0199131435 1.797396896
0.3758338102 0.0104937584 2.024770122
CELLS 4 36
8 7 6 5 4 3 2 1 0
8 11 10 9 8 1 2 3 0
8 12 13 8 9 7 4 0 3
8 17 16 15 14 5 4 7 6
CELL_TYPES 4
12
12
12
12
POINT_DATA 18
SCALARS fixed int
LOOKUP_TABLE default
0
0
0
0
0
0
0
0
0
0
0
0
0
0
0
0
0
0
