# vtk DataFile Version 3.0
Mesquite Mesh
ASCII
DATASET UNSTRUCTURED_GRID
POINTS 20 double
0.1861912884 0.0008592887658 -0.4351613528
1.012600431 0.006374468176 -0.8228152561
0.729258357 1.056583589 -0.5192001377
0.1329692976 1.035733629 -0.4313967084
-0.2292773831 0.007027291388 0.2170645769
0.9483645625 0.0358143251 -0.07335705571
0.7660259947 1.014277247 0.03099858018
-0.35384777 1.015944679 0.179093202
0.1652588162 -0.0009207793109 -1.048618176
0.1230991125 1.03111428 -1.027671321
1.207164764 1.173560555 -1.136028001
1.380990407 0.2333013967 -1.347948182
-0.5863108217 0.9883909475 -1.356626956
-0.5317032742 -0.001468038075 -1.274453079
1.460739003 1.053114473 0.2994800486
0.3323090135 0.9784838346 1.04844734
0.3896631321 0.07083671285 1.050486427
1.557213127 0.06255055819 0.2052417379
0.4344385805 0.1126358712 -2.067341356
0.4186921615 1.039069727 -2.033043591
CELLS 6 54
8 7 6 5 4 3 2 1 0
8 11 10 9 8 1 2 3 0
8 12 13 8 9 7 4 0 3
8 17 16 15 14 5 4 7 6
8 10 11 17 14 2 1 5 6
8 18 19 12 13 11 10 9 8
CELL_TYPES 6
12
12
12
12
12
12
POINT_DATA 20
SCALARS fixed int
LOOKUP_TABLE default
0
0
0
0
0
0
0
0
0
0
0
0
0
0
0
0
0
0
0
0
