# vtk DataFile Version 3.0
Mesquite Mesh
ASCII
DATASET UNSTRUCTURED_GRID
POINTS 20 double
0.1505298222 -0.01354250901 -0.5310870412
0.8901990232 -0.02222022975 -1.056534838
0.6407772362 1.005868566 -0.6861093102
0.03807549018 0.9953066765 -0.644846152
-0.1639594057 0.007558679304 -0.0747503515
0.8663087636 0.03781083206 -0.1838975674
0.6464125674 1.034546146 -0.0979719705
-0.2820699739 0.9738624526 -0.06234383906
0.2509363376 -0.03158474768 -1.113632052
0.07582219288 0.971795501 -1.086590295
0.8096749647 1.11487367 -1.479389405
1.028448198 0.2435437415 -1.607896126
-0.4714605402 0.9922786371 -1.045977624
-0.3743123989 0.002419344059 -1.033519649
1.213816498 1.018676324 0.2156590831
-0.5918256497 0.9081773765 0.3856599097
-0.4920015387 -0.02081296539 0.3226265303
1.280573291 0.1423462138 0.1549284784
-0.8135050822 0.008409319824 -1.412617703
-0.9041563753 0.9539059202 -1.41087318
CELLS 7 63
8 7 6 5 4 3 2 1 0
8 11 10 9 8 1 2 3 0
8 12 13 8 9 7 4 0 3
8 17 16 15 14 5 4 7 6
8 10 11 17 14 2 1 5 6
8 18 19 12 13 11 10 9 8
8 18 19 15 16 13 12 7 4
CELL_TYPES 7
12
12
12
12
12
12
12
POINT_DATA 20
SCALARS fixed int
LOOKUP_TABLE default
0
0
0
0
0
0
0
0
0
0
0
0
0
0
0
0
0
0
0
0
