# vtk DataFile Version 3.0
Mesquite Mesh
ASCII
DATASET UNSTRUCTURED_GRID
POINTS 26 double
0.1645053602 -0.1198486426 -0.5874478335
0.8981286107 -0.0635075706 -1.082625203
0.53656868 0.9227188488 -0.7482387992
0.09986338395 0.8844641379 -0.5916092388
-0.1383841458 -0.1313139941 -0.1606400823
0.9257579126 0.0130547168 -0.3277913375
0.6324044813 0.9967904936 -0.2180953834
-0.2582034767 0.887900838 -0.1097486249
0.3080934868 -0.1381181958 -1.263963521
0.1228018522 0.8734169793 -1.052725334
0.6791617109 1.283536944 -1.430606375
0.9201747715 0.4467761524 -1.661407567
-0.3604753657 0.8804115129 -1.004299704
-0.28306909 -0.2066632312 -1.208363092
1.05670434 1.18489922 0.09929471504
-0.5654823897 0.8926000941 0.3136399592
-0.440804729 -0.048725269 0.2507787108
1.324827593 0.2964409056 0.01088809396
-0.699281383 0.1793504186 -1.515467315
-0.7556843981 1.086454851 -1.329323264
0.7194087617 0.0708051403 -2.489125593
-0.50962217 -0.1204011858 -2.390873988
-0.6663076777 0.765604372 -2.443142349
0.5331674274 0.986794985 -2.504679105
-0.3187087242 -0.8941445539 -1.966398964
0.5888130074 -0.749967661 -1.970945677
CELLS 9 81
8 7 6 5 4 3 2 1 0
8 11 10 9 8 1 2 3 0
8 12 13 8 9 7 4 0 3
8 17 16 15 14 5 4 7 6
8 10 11 17 14 2 1 5 6
8 18 19 12 13 11 10 9 8
8 18 19 15 16 13 12 7 4
8 23 22 21 20 10 19 18 11
8 24 25 20 21 13 8 11 18
CELL_TYPES 9
12
12
12
12
12
12
12
12
12
POINT_DATA 26
SCALARS fixed int
LOOKUP_TABLE default
0
0
0
0
0
0
0
0
0
0
0
0
0
0
0
0
0
0
0
0
0
0
0
0
0
0
