# vtk DataFile Version 3.0
Mesquite Mesh
ASCII
DATASET UNSTRUCTURED_GRID
POINTS 30 double
0.1658862006 -1.139852356 -1.457956141
0.8908453218 -0.6917288745 -1.933665721
0.4127691002 0.2477769851 -1.614362238
0.04824441337 0.02893884951 -1.514598203
-0.1676111156 -1.003349894 -1.075397528
0.9377178558 -0.6292769936 -1.157948327
0.5269192028 0.3452708042 -1.109884047
-0.2988529604 0.07202683679 -1.055551242
0.4032878691 -0.9658712887 -2.658711404
0.05733519025 0.08100844949 -2.053768384
0.3760298096 0.8635860215 -2.268426071
0.7676849037 0.07710359191 -2.596375631
-0.3158442482 0.07333814743 -1.999740468
-0.4407727536 -0.9688197373 -2.558591886
0.9214299263 0.6140659951 -0.8260442046
-0.6413638869 0.1783646075 -0.6645552941
-0.5700123094 -0.7599232346 -0.6801534921
1.248116656 -0.2547530178 -0.838043332
-0.7465033536 -0.1276334754 -2.469232845
-0.6206520927 0.7465340432 -2.257080399
0.6007601049 0.02883561398 -2.903927437
-0.5722008096 -0.08993302058 -2.815399524
-0.5945654096 0.1968382363 -2.897308605
0.463947813 0.3336014668 -3.035025926
-0.505013331 -0.4023923155 -2.898855074
0.50030023 -0.3883289804 -3.006506289
0.3405160339 0.2001581693 -3.621104693
-0.6549470052 0.1114411664 -3.507618421
0.1863680525 0.2959466721 -4.102370268
-0.6846746486 0.1862074794 -4.006039258
CELLS 12 108
8 7 6 5 4 3 2 1 0
8 11 10 9 8 1 2 3 0
8 12 13 8 9 7 4 0 3
8 17 16 15 14 5 4 7 6
8 10 11 17 14 2 1 5 6
8 18 19 12 13 11 10 9 8
8 18 19 15 16 13 12 7 4
8 23 22 21 20 10 19 18 11
8 24 25 20 21 13 8 11 18
8 26 27 24 25 23 22 21 20
8 28 29 27 26 10 19 22 23
8 28 29 13 8 26 27 24 25
CELL_TYPES 12
12
12
12
12
12
12
12
12
12
12
12
12
POINT_DATA 30
SCALARS fixed int
LOOKUP_TABLE default
0
0
0
0
0
0
0
0
0
0
0
0
0
0
0
0
0
0
0
0
0
0
0
0
0
0
0
0
0
0
