# vtk DataFile Version 3.0
Mesquite Mesh
ASCII
DATASET UNSTRUCTURED_GRID
POINTS 32 double
-0.3584322378 -1.144981289 -2.487809309
0.6860366233 -0.3199058315 -2.284705175
0.2083932513 0.2325568777 -2.002449652
-0.2479646459 -0.01600471922 -2.084043445
-0.7951100415 -0.8280256762 -2.280533612
0.5847761533 -0.4451103349 -1.74232405
0.189876139 0.4140220695 -1.59923427
-0.7442146018 0.04513577149 -1.763739548
0.1770238502 -0.1668487064 -2.815551568
-0.06773603258 0.6851823675 -2.050370191
0.3538072056 0.7747331861 -2.268769131
0.667434873 0.4035995956 -2.653186869
-0.5875829872 0.6006314612 -2.01717667
-0.5587265356 -0.1219804193 -2.544053357
0.5535871819 0.6927683369 -1.267655443
-1.151085604 0.1723981425 -1.403905066
-1.212755443 -0.8950363826 -1.840351873
0.840268494 -0.09366557858 -1.286800047
-0.859302806 0.3075651714 -2.386405234
-0.7632759952 0.6709854595 -2.222908623
0.5528759997 0.6804243147 -2.731619236
-0.633347639 0.5786665376 -2.627113943
-0.6829946938 0.8866720352 -2.516587475
0.3863348505 1.027608997 -2.716036104
-0.5436839743 0.5362867223 -2.704575048
0.4602359483 0.536016753 -2.872395405
0.1815693474 1.408982455 -3.106403846
-0.8356193911 1.304737584 -2.950577095
-0.003768986194 1.755253443 -3.283206415
-0.8615142425 1.627526834 -3.127597486
-0.9329298744 1.900506686 -3.331406742
-0.2744389135 1.969315943 -3.43016677
CELLS 14 126
8 7 6 5 4 3 2 1 0
8 11 10 9 8 1 2 3 0
8 12 13 8 9 7 4 0 3
8 17 16 15 14 5 4 7 6
8 10 11 17 14 2 1 5 6
8 18 19 12 13 11 10 9 8
8 18 19 15 16 13 12 7 4
8 23 22 21 20 10 19 18 11
8 24 25 20 21 13 8 11 18
8 26 27 24 25 23 22 21 20
8 28 29 27 26 10 19 22 23
8 28 29 13 8 26 27 24 25
8 30 31 9 12 29 28 10 19
8 31 30 4 0 28 29 13 8
CELL_TYPES 14
12
12
12
12
12
12
12
12
12
12
12
12
12
12
POINT_DATA 32
SCALARS fixed int
LOOKUP_TABLE default
0
0
0
0
0
0
0
0
0
0
0
0
0
0
0
0
0
0
0
0
0
0
0
0
0
0
0
0
0
0
0
0
