# vtk DataFile Version 3.0
Mesquite Mesh
ASCII
DATASET UNSTRUCTURED_GRID
POINTS 18 double
0.1383310163 -0.002056201005 -0.1877497235
0.939100565 -9.399452791e-08 9.00267964e-06
0.7546004745 1.007263566 0.1576287275
0.1617560901 1.013709395 -0.158499737
-0.5352643844 0.0232287046 0.7198177998
0.5764248399 -0.01681844357 0.7505676811
0.5400384027 0.9957720446 0.8174807189
-0.5350536673 0.9883206834 0.724102013
0.1518317868 0.01732839905 -0.9730848323
0.1756149678 0.9643574353 -0.975156012
1.461322539 1.025820167 -0.1429217549
1.538426469 0.08752179528 -0.2477948889
-0.9698995093 0.99416653 -0.3032077551
-0.9845589105 0.03447509051 -0.2973512467
1.12215566 0.9433003282 1.353289155
-0.2329298185 0.9789456443 1.801723153
-0.2540712113 0.03538641595 1.795225143
1.116524735 0.0003919542933 1.298082949
CELLS 5 45
8 7 6 5 4 3 2 1 0
8 11 10 9 8 1 2 3 0
8 12 13 8 9 7 4 0 3
8 17 16 15 14 5 4 7 6
8 10 11 17 14 2 1 5 6
CELL_TYPES 5
12
12
12
12
12
POINT_DATA 18
SCALARS fixed int
LOOKUP_TABLE default
0
0
0
0
0
0
0
0
0
0
0
0
0
0
0
0
0
0
