# vtk DataFile Version 3.0
Mesquite Mesh
ASCII
DATASET UNSTRUCTURED_GRID
POINTS 24 double
0.1505298222 -0.01354250901 -0.5310870412
0.8901990232 -0.02222022975 -1.056534838
0.5639674958 0.968670283 -0.7429978162
0.1181523449 1.016904992 -0.5693176781
-0.139668107 -0.02303574354 -0.09366645686
0.8917160547 0.05400816449 -0.2618301802
0.6666110639 1.069087083 -0.1723068478
-0.2503960137 1.00566008 -0.07321618589
0.2444490024 -0.01435753292 -1.117626228
0.1123697525 1.033370903 -1.029069829
0.7613011689 1.214235396 -1.459074952
1.022046251 0.3213502983 -1.612679929
-0.4190050674 1.03481948 -1.003237271
-0.2820129004 -0.01328205736 -1.064879387
1.129931965 1.124746687 0.1468433384
-0.5644137845 0.9021183821 0.3533407131
-0.4504450208 -0.02954993418 0.3069109695
1.297459961 0.2108084372 0.07861104014
-0.664305356 0.009213672266 -1.438945761
-0.8170641668 0.9403908279 -1.376361885
0.7279321962 0.3206259981 -2.536679263
-0.6930164096 0.05742902952 -2.395708294
-0.8051400774 0.9708306271 -2.383813467
0.6058451865 1.218515863 -2.44001677
CELLS 8 72
8 7 6 5 4 3 2 1 0
8 11 10 9 8 1 2 3 0
8 12 13 8 9 7 4 0 3
8 17 16 15 14 5 4 7 6
8 10 11 17 14 2 1 5 6
8 18 19 12 13 11 10 9 8
8 18 19 15 16 13 12 7 4
8 23 22 21 20 10 19 18 11
CELL_TYPES 8
12
12
12
12
12
12
12
12
POINT_DATA 24
SCALARS fixed int
LOOKUP_TABLE default
0
0
0
0
0
0
0
0
0
0
0
0
0
0
0
0
0
0
0
0
0
0
0
0
