# vtk DataFile Version 3.0
Mesquite Mesh
ASCII
DATASET UNSTRUCTURED_GRID
POINTS 28 double
0.1673124148 -0.139075519 -0.7287958999
0.8993993995 -0.0818382875 -1.206756409
0.5245320134 0.8974933156 -0.9454514513
0.09267320722 0.8670908477 -0.7992085023
-0.1551847628 -0.1221988343 -0.28596608
0.9423097152 0.04282075719 -0.4499165022
0.6181331044 1.01651932 -0.4140155981
-0.252045818 0.8978998911 -0.3195123991
0.3388356745 -0.233069592 -1.408358403
0.1065402211 0.8447090477 -1.262563194
0.6227344129 1.221998965 -1.661763989
0.9195617138 0.3882974291 -1.81886113
-0.3502313743 0.8284863397 -1.216615043
-0.302509706 -0.2522883569 -1.335617477
1.042977302 1.231548534 -0.1177983139
-0.5836551516 0.9332955474 0.08518785056
-0.4891944067 0.01652261191 0.1237036885
1.317058008 0.3482363639 -0.1154886579
-0.6979049065 0.1620985301 -1.660290479
-0.724809995 1.018728787 -1.577203678
0.6432460278 0.08022453597 -2.507999722
-0.4857207831 -0.07383453726 -2.399023907
-0.6022661639 0.5594957781 -2.921872189
0.4523473391 0.7243771235 -3.016227881
-0.3699547375 -0.9412239663 -2.465266626
0.5733988112 -0.8368102787 -2.541399418
0.3927728305 -0.3395705889 -3.39384751
-0.5102805159 -0.4846768424 -3.340045084
CELLS 10 90
8 7 6 5 4 3 2 1 0
8 11 10 9 8 1 2 3 0
8 12 13 8 9 7 4 0 3
8 17 16 15 14 5 4 7 6
8 10 11 17 14 2 1 5 6
8 18 19 12 13 11 10 9 8
8 18 19 15 16 13 12 7 4
8 23 22 21 20 10 19 18 11
8 24 25 20 21 13 8 11 18
8 26 27 24 25 23 22 21 20
CELL_TYPES 10
12
12
12
12
12
12
12
12
12
12
POINT_DATA 28
SCALARS fixed int
LOOKUP_TABLE default
0
0
0
0
0
0
0
0
0
0
0
0
0
0
0
0
0
0
0
0
0
0
0
0
0
0
0
0
