# vtk DataFile Version 3.0
Mesquite Mesh
ASCII
DATASET UNSTRUCTURED_GRID
POINTS 30 double
0.6398024596 0.4197871198 -0.8477741742
1.296276188 0.5106317533 -1.198343809
1.13635525 1.224236564 -1.182539165
0.8555534988 1.179179268 -0.9636654477
0.355675106 1.367719342 -0.0177832425
1.642729022 0.8115024356 -0.2641477998
1.364039046 1.412491782 -0.7334854664
0.7363106836 1.724878705 -0.5210054152
0.3511066167 0.7872719145 -2.07287842
0.7538533462 1.421259666 -1.300447157
0.8867785301 1.640564705 -2.182209529
1.032332692 1.149223896 -2.345349011
0.4850173812 1.787124023 -1.278283035
-0.2862435342 1.55633024 -1.597316183
1.736490247 1.9125809 -1.015645905
0.9445110778 2.43807611 -0.6087193303
0.6210995595 2.235058318 0.05661356673
2.095821215 1.358725157 -0.5399960213
-0.02291328249 2.169594604 -1.881119707
0.305907742 2.314079453 -2.040861342
1.015366189 1.336313085 -2.496076779
0.1772863003 2.115929518 -2.097111352
0.2046706943 2.574166316 -2.276609212
0.9788916186 1.843905209 -2.566935031
0.1661380465 1.903706389 -2.06262249
0.8808056334 1.117641633 -2.483905462
1.193951978 2.081776616 -2.939957056
0.4225971821 2.803206074 -2.656796728
1.362621506 2.534529454 -3.2680293
0.740889801 3.137580952 -3.09108693
CELLS 12 108
8 7 6 5 4 3 2 1 0
8 11 10 9 8 1 2 3 0
8 12 13 8 9 7 4 0 3
8 17 16 15 14 5 4 7 6
8 10 11 17 14 2 1 5 6
8 18 19 12 13 11 10 9 8
8 18 19 15 16 13 12 7 4
8 23 22 21 20 10 19 18 11
8 24 25 20 21 13 8 11 18
8 26 27 24 25 23 22 21 20
8 28 29 27 26 10 19 22 23
8 28 29 13 8 26 27 24 25
CELL_TYPES 12
12
12
12
12
12
12
12
12
12
12
12
12
POINT_DATA 30
SCALARS fixed int
LOOKUP_TABLE default
0
0
0
0
0
0
0
0
0
0
0
0
0
0
0
0
0
0
0
0
0
0
0
0
0
0
0
0
0
0
