# vtk DataFile Version 3.0
Mesquite Mesh
ASCII
DATASET UNSTRUCTURED_GRID
POINTS 30 double
0.07345722144 0.7677528355 -0.9430416753
0.8650326335 0.7250169167 -1.386599604
0.4492695742 1.684022168 -1.456657645
0.01407852571 1.681292107 -1.326921511
-0.2978177225 0.9502023826 -0.555029933
0.8324575849 1.117755609 -0.6773246213
0.4808681013 2.012877674 -0.9925685439
-0.3650101376 1.893579912 -0.9252905159
0.3164819465 0.5022432177 -1.574532524
0.04047163717 1.546470899 -1.77689023
0.5332543397 1.855796746 -2.236177557
0.9055306928 1.020802536 -2.1197426
-0.3911642008 1.547455352 -1.752581681
-0.3595223741 0.4849458861 -1.536625014
0.8829090178 2.367816664 -0.7867453906
-0.7306548048 2.102257748 -0.5948503578
-0.6617564665 1.259300263 -0.2400126572
1.157024969 1.560285834 -0.4459095195
-0.7243100941 0.8069246278 -1.997826196
-0.7455693212 1.671950839 -2.190131815
0.6498090326 0.5709388499 -2.652899656
-0.4774359055 0.4314620585 -2.558254982
-0.5466183907 0.8440349227 -2.924582894
0.5058598263 0.99007488 -3.002959114
-0.3707772157 -0.2851385548 -2.666721535
0.5765849715 -0.1921756953 -2.738344296
0.406722741 0.7810729402 -3.779548358
-0.5500342459 0.6312746627 -3.695978733
0.2965803103 1.917422421 -3.387395133
-0.7519972247 1.748486214 -3.326828046
CELLS 11 99
8 7 6 5 4 3 2 1 0
8 11 10 9 8 1 2 3 0
8 12 13 8 9 7 4 0 3
8 17 16 15 14 5 4 7 6
8 10 11 17 14 2 1 5 6
8 18 19 12 13 11 10 9 8
8 18 19 15 16 13 12 7 4
8 23 22 21 20 10 19 18 11
8 24 25 20 21 13 8 11 18
8 26 27 24 25 23 22 21 20
8 28 29 27 26 10 19 22 23
CELL_TYPES 11
12
12
12
12
12
12
12
12
12
12
12
POINT_DATA 30
SCALARS fixed int
LOOKUP_TABLE default
0
0
0
0
0
0
0
0
0
0
0
0
0
0
0
0
0
0
0
0
0
0
0
0
0
0
0
0
0
0
