# vtk DataFile Version 3.0
Mesquite Mesh
ASCII
DATASET UNSTRUCTURED_GRID
POINTS 30 double
0.2073679283 -0.972151562 -1.386647767
0.9781058325 -0.5726463158 -1.723853149
0.4357804036 0.4931999818 -1.314459291
0.08879668378 0.2661498346 -1.274018582
-0.1738634537 -0.7766515441 -0.9618466126
0.9670007169 -0.4179837058 -0.934333845
0.5381113322 0.5635040859 -0.7899015895
-0.2674052812 0.3159821 -0.8171224192
0.4762590654 -0.6654779083 -2.446690055
0.1189203882 0.3914873021 -1.798728068
0.4172803111 1.150010692 -1.995077766
0.8471102256 0.352433968 -2.346506587
-0.2640430255 0.399097183 -1.762083239
-0.3443040886 -0.6595498319 -2.385282318
0.8975387335 0.8505337366 -0.4592721151
-0.6352016368 0.4618958925 -0.4409465965
-0.5784551847 -0.497317068 -0.5321789329
1.253484927 -0.02239928322 -0.5496390933
-0.6657693682 0.156392934 -2.316148178
-0.5780946531 1.045118973 -2.048553507
0.6543017351 0.3776997717 -2.647981312
-0.5077288451 0.234780031 -2.617786402
-0.5590406645 0.5997560015 -2.733452664
0.4867907789 0.7209145242 -2.755336343
-0.395638433 -0.08689006643 -2.754292577
0.5899073733 -0.03070701236 -2.796207717
0.4412701887 0.5830159724 -3.464299401
-0.5385957277 0.445067669 -3.40573773
0.3087770037 0.6992578774 -3.922195788
-0.5656800914 0.5695308239 -3.874942632
CELLS 12 108
8 7 6 5 4 3 2 1 0
8 11 10 9 8 1 2 3 0
8 12 13 8 9 7 4 0 3
8 17 16 15 14 5 4 7 6
8 10 11 17 14 2 1 5 6
8 18 19 12 13 11 10 9 8
8 18 19 15 16 13 12 7 4
8 23 22 21 20 10 19 18 11
8 24 25 20 21 13 8 11 18
8 26 27 24 25 23 22 21 20
8 28 29 27 26 10 19 22 23
8 28 29 13 8 26 27 24 25
CELL_TYPES 12
12
12
12
12
12
12
12
12
12
12
12
12
POINT_DATA 30
SCALARS fixed int
LOOKUP_TABLE default
0
0
0
0
0
0
0
0
0
0
0
0
0
0
0
0
0
0
0
0
0
0
0
0
0
0
0
0
0
0
