# vtk DataFile Version 3.0
Mesquite Mesh
ASCII
DATASET UNSTRUCTURED_GRID
POINTS 32 double
0.1253580884 -0.3804708836 -1.236314727
0.9397144966 -0.06055903255 -1.704624965
0.4368134529 0.9403808801 -1.013898938
0.03429630205 0.8283238105 -0.8833249364
-0.2851836065 -0.1076250902 -0.715796473
0.9250210858 0.1935270487 -0.6505181309
0.5369078581 1.230123647 -0.4067407086
-0.3828143988 0.9841779387 -0.3230920078
0.2516055435 0.2277617459 -2.875940762
0.08008395255 0.9492031074 -1.475046395
0.4170421431 1.258415551 -1.766779209
0.795453491 0.7946388554 -2.462263503
-0.3565161906 0.9122038603 -1.480658143
-0.5113685689 0.2129441308 -2.724604593
0.9194830307 1.52034335 -0.1328915584
-0.783210754 1.186974904 0.08705205162
-0.7220637962 0.2113652754 -0.1124993727
1.242274352 0.6194969328 -0.2820249824
-0.7920741429 0.6385010762 -2.283551014
-0.5934248883 1.116705313 -1.801589313
0.5856857763 1.060884849 -2.48959309
-0.5893774252 0.9218262095 -2.394276636
-0.6515893995 1.441558778 -2.274819088
0.3805730059 1.595785746 -2.273132218
-0.4513863768 0.8846782829 -2.576770695
0.5229735431 0.8288119069 -2.727157492
0.2556498199 2.034082467 -2.700144078
-0.7566577867 2.004782996 -2.686182478
0.01223119798 2.592448488 -2.93943466
-0.8141912714 2.39763175 -2.849596726
-0.6362086638 2.090282029 -1.946409555
-0.007637863678 2.141812052 -1.879051948
CELLS 13 117
8 7 6 5 4 3 2 1 0
8 11 10 9 8 1 2 3 0
8 12 13 8 9 7 4 0 3
8 17 16 15 14 5 4 7 6
8 10 11 17 14 2 1 5 6
8 18 19 12 13 11 10 9 8
8 18 19 15 16 13 12 7 4
8 23 22 21 20 10 19 18 11
8 24 25 20 21 13 8 11 18
8 26 27 24 25 23 22 21 20
8 28 29 27 26 10 19 22 23
8 28 29 13 8 26 27 24 25
8 30 31 9 12 29 28 10 19
CELL_TYPES 13
12
12
12
12
12
12
12
12
12
12
12
12
12
POINT_DATA 32
SCALARS fixed int
LOOKUP_TABLE default
0
0
0
0
0
0
0
0
0
0
0
0
0
0
0
0
0
0
0
0
0
0
0
0
0
0
0
0
0
0
0
0
