# vtk DataFile Version 3.0
Mesquite Mesh
ASCII
DATASET UNSTRUCTURED_GRID
POINTS 32 double
-0.2747865757 -0.9200518935 -3.307163473
0.9126452264 -0.03080790393 -2.343608848
0.3914240159 0.8938096008 -1.80278187
-0.0553237189 0.731216011 -2.076488519
-0.7704740194 -0.3625594411 -2.857956289
0.6595758557 0.02368729973 -1.754712649
0.3470988117 1.125640172 -1.306674712
-0.5974783963 0.8401206225 -1.856453619
0.2080387897 0.1675426072 -2.984109845
0.07809560507 1.31154672 -1.970386921
0.533869039 1.344263632 -2.174821862
0.911054328 0.8140791423 -2.589872877
-0.5338043163 1.280458487 -2.007048421
-0.5762774664 0.2445076909 -2.908242725
0.6560873599 1.394274921 -0.8266673671
-1.053780775 1.305642028 -1.272788366
-1.220170583 -0.1227515582 -2.216677326
0.8375635938 0.4593812005 -1.020877364
-0.8750490878 0.8462401508 -2.557980836
-0.7601043787 1.308489809 -2.234909855
0.7007203873 1.091456477 -2.683573419
-0.6692609488 1.028039767 -2.631466962
-0.7389146334 1.534361733 -2.578486785
0.4680186348 1.599980261 -2.58773464
-0.4954724054 0.9555401193 -2.8674903
0.585685748 0.8488807849 -2.879669851
0.2917219964 2.007558629 -2.918203246
-0.7735356399 1.956193248 -2.9180885
0.01208559818 2.395857639 -3.128673622
-0.8157284696 2.268522928 -3.04027637
-1.003740772 2.591591996 -3.188699035
-0.3691958553 2.635217962 -3.281894016
CELLS 14 126
8 7 6 5 4 3 2 1 0
8 11 10 9 8 1 2 3 0
8 12 13 8 9 7 4 0 3
8 17 16 15 14 5 4 7 6
8 10 11 17 14 2 1 5 6
8 18 19 12 13 11 10 9 8
8 18 19 15 16 13 12 7 4
8 23 22 21 20 10 19 18 11
8 24 25 20 21 13 8 11 18
8 26 27 24 25 23 22 21 20
8 28 29 27 26 10 19 22 23
8 28 29 13 8 26 27 24 25
8 30 31 9 12 29 28 10 19
8 31 30 4 0 28 29 13 8
CELL_TYPES 14
12
12
12
12
12
12
12
12
12
12
12
12
12
12
POINT_DATA 32
SCALARS fixed int
LOOKUP_TABLE default
0
0
0
0
0
0
0
0
0
0
0
0
0
0
0
0
0
0
0
0
0
0
0
0
0
0
0
0
0
0
0
0
