# vtk DataFile Version 3.0
Mesquite Mesh
ASCII
DATASET UNSTRUCTURED_GRID
POINTS 34 double
0.5821118575 -0.8606749911 -3.552635867
0.8246799273 0.1891487326 -2.03809153
-0.2555458645 1.143042827 -1.459055374
-0.3855744398 0.7153912785 -2.105493689
-0.5578229227 -0.1901159915 -2.940650614
0.3484121441 0.3130090483 -1.438408988
-0.4681970441 1.379213223 -0.921731062
-1.178466602 0.9766416301 -1.785789469
0.2427454179 0.3148264394 -2.927856901
-0.6231569183 1.866154751 -1.559199421
-0.1972075835 1.736895083 -1.698444306
0.5056063573 1.158034799 -2.232292828
-1.195169938 1.739114361 -1.743220291
-0.5054954881 0.5173795765 -2.874235832
-0.3697550683 1.6902101 -0.2952079164
-1.962307287 1.300420585 -1.211252185
-1.446609088 0.06149821005 -2.223671319
0.165804497 0.7246751986 -0.6389539839
-1.015893261 1.147079212 -2.578259793
-1.256747639 1.725296619 -2.043763712
0.4122545599 1.277984033 -2.434083668
-0.8069719055 1.351962207 -2.641459412
-0.9028498579 1.751050451 -2.477307587
0.1681973899 1.752571295 -2.334465788
-0.3918400803 1.08510534 -2.87588935
0.5909599215 0.8339911885 -2.794987585
0.296316242 1.882329502 -2.885047602
-0.5962866891 1.972986381 -3.052765461
0.04242676112 2.040237461 -3.119996882
-0.5944441999 2.256656651 -3.232889289
-0.4122598552 2.492762599 -3.542933636
0.3202931199 2.091561381 -3.496584007
0.9200243851 2.095060008 -3.434065778
1.049759445 -0.1625508943 -3.413276075
CELLS 15 135
8 7 6 5 4 3 2 1 0
8 11 10 9 8 1 2 3 0
8 12 13 8 9 7 4 0 3
8 17 16 15 14 5 4 7 6
8 10 11 17 14 2 1 5 6
8 18 19 12 13 11 10 9 8
8 18 19 15 16 13 12 7 4
8 23 22 21 20 10 19 18 11
8 24 25 20 21 13 8 11 18
8 26 27 24 25 23 22 21 20
8 28 29 27 26 10 19 22 23
8 28 29 13 8 26 27 24 25
8 30 31 9 12 29 28 10 19
8 31 30 4 0 28 29 13 8
8 32 33 25 26 31 0 8 28
CELL_TYPES 15
12
12
12
12
12
12
12
12
12
12
12
12
12
12
12
POINT_DATA 34
SCALARS fixed int
LOOKUP_TABLE default
0
0
0
0
0
0
0
0
0
0
0
0
0
0
0
0
0
0
0
0
0
0
0
0
0
0
0
0
0
0
0
0
0
0
