# vtk DataFile Version 3.0
Mesquite Mesh
ASCII
DATASET UNSTRUCTURED_GRID
POINTS 36 double
0.6829267475 -0.8879934517 -3.451933784
0.9929154414 0.2472126634 -2.013516442
0.06140497817 1.097075547 -1.514602422
0.007643690354 0.5252701079 -2.2150387
-0.4277803389 -0.1750197514 -2.748783479
0.4852418681 0.3684333366 -1.367615783
-0.1985809477 1.370546433 -0.9395354247
-0.8129502844 0.9059408351 -1.761973644
0.3557502742 0.3817244322 -2.838162715
-0.2259441086 1.829727471 -1.601434747
0.1828690423 1.797192676 -1.837706799
0.7206760638 1.259424916 -2.216506769
-0.9228979129 1.743763184 -1.727410509
-0.4194752708 0.5929428976 -2.743576957
-0.112189149 1.715386762 -0.2935124407
-1.579884104 1.208892216 -1.128427555
-1.211583298 0.1220957823 -1.911040686
0.3806965629 0.755048871 -0.6319345959
-0.8360195283 1.133120003 -2.499458616
-1.054639092 1.649628216 -2.012855133
0.5647229011 1.290996753 -2.400717179
-0.662592349 1.328034554 -2.557809973
-0.7513913536 1.620158566 -2.421664879
0.4661650313 1.687624942 -2.357053166
-0.330106847 1.143415719 -2.757041059
0.6164709831 0.8378700777 -2.769104375
0.2177057534 1.576764155 -2.886282697
-0.6603161869 1.781098021 -2.949697853
0.02869182659 1.794912573 -3.143221471
-0.7468496946 2.025680835 -3.208446625
-0.4519163889 2.225274473 -3.502846774
0.4173322094 1.745838709 -3.522385693
0.9653945914 1.933764509 -3.400120778
1.313281683 0.08510684601 -3.244108941
1.506425896 0.4299371091 -2.79221593
1.290285846 2.059047115 -2.866631705
CELLS 16 144
8 7 6 5 4 3 2 1 0
8 11 10 9 8 1 2 3 0
8 12 13 8 9 7 4 0 3
8 17 16 15 14 5 4 7 6
8 10 11 17 14 2 1 5 6
8 18 19 12 13 11 10 9 8
8 18 19 15 16 13 12 7 4
8 23 22 21 20 10 19 18 11
8 24 25 20 21 13 8 11 18
8 26 27 24 25 23 22 21 20
8 28 29 27 26 10 19 22 23
8 28 29 13 8 26 27 24 25
8 30 31 9 12 29 28 10 19
8 31 30 4 0 28 29 13 8
8 32 33 25 26 31 0 8 28
8 34 35 32 33 20 23 26 25
CELL_TYPES 16
12
12
12
12
12
12
12
12
12
12
12
12
12
12
12
12
POINT_DATA 36
SCALARS fixed int
LOOKUP_TABLE default
0
0
0
0
0
0
0
0
0
0
0
0
0
0
0
0
0
0
0
0
0
0
0
0
0
0
0
0
0
0
0
0
0
0
0
0
