# vtk DataFile Version 3.0
Mesquite Mesh
ASCII
DATASET UNSTRUCTURED_GRID
POINTS 14 double
-5.503540206e-06 3.936823336e-21 -5.518252272e-21
0.9473892221 -4.263814144e-16 2.673230761e-16
0.9591688513 0.9925515964 -8.013825662e-17
0.01325357784 1.009722647 -1.242041014e-16
-0.4721273591 0.01442965438 0.8224176605
0.6112497434 0.008207102155 1.053318257
0.6262889662 0.9869345986 1.053362396
-0.4612841063 1.008188614 0.8207572502
-0.4721273591 0.01442965438 -0.8224176605
-0.4612841063 1.008188614 -0.8207572502
0.6262889662 0.9869345986 -1.053362396
0.6112497434 0.008207102155 -1.053318257
-1.202649815 1.004085804 -2.970752602e-16
-1.213866383 0.02345578662 -1.774536539e-16
CELLS 3 27
8 7 6 5 4 3 2 1 0
8 11 10 9 8 1 2 3 0
8 12 13 8 9 7 4 0 3
CELL_TYPES 3
12
12
12
POINT_DATA 14
SCALARS fixed int
LOOKUP_TABLE default
0
0
0
0
0
0
0
0
0
0
0
0
0
0
