# vtk DataFile Version 3.0
Mesquite Mesh
ASCII
DATASET UNSTRUCTURED_GRID
POINTS 18 double
-5.503540206e-06 3.936823336e-21 -5.518252272e-21
0.9473892221 -4.263814144e-16 2.673230761e-16
0.9563239148 0.9939774811 0.0004023665041
0.01067104543 1.010823116 0.0007789015721
-0.4720894549 0.01255910819 0.8198800947
0.6009672204 0.008029388047 1.050928391
0.6110947801 0.9897357757 1.051830775
-0.460763845 1.007542466 0.8209213183
-0.4735115706 0.01373338141 -0.8185191246
-0.4624544543 1.008586821 -0.8181844828
0.6181632685 0.989073136 -1.05364411
0.6085062207 0.009968495024 -1.05340114
-1.205693968 1.008842636 0.002477367022
-1.216300566 0.02942013916 0.001618443905
0.3889539557 0.9935308632 2.021182085
-0.6416980698 1.009131038 1.800018193
-0.6545295422 0.0198150221 1.800869865
0.3768074126 0.008838742151 2.021544214
CELLS 4 36
8 7 6 5 4 3 2 1 0
8 11 10 9 8 1 2 3 0
8 12 13 8 9 7 4 0 3
8 17 16 15 14 5 4 7 6
CELL_TYPES 4
12
12
12
12
POINT_DATA 18
SCALARS fixed int
LOOKUP_TABLE default
0
0
0
0
0
0
0
0
0
0
0
0
0
0
0
0
0
0
