# vtk DataFile Version 3.0
Mesquite Mesh
ASCII
DATASET UNSTRUCTURED_GRID
POINTS 18 double
0.164479727 -0.001513906549 -0.2268305939
0.9473949124 -4.970122451e-08 7.80625433e-06
0.7862160886 1.011854718 0.15031484
0.1857661498 0.9993632514 -0.1872253854
-0.5562625335 0.02094426978 0.657073981
0.5690683032 -0.007189406993 0.7275297058
0.5046414466 0.9906898104 0.8188622174
-0.5299380743 0.9838392803 0.6526759946
0.1973413679 0.0259154777 -1.01520136
0.2637757521 0.9835110751 -0.9944168804
1.486163885 1.007563044 -0.1619704408
1.583877442 0.08502699287 -0.2186895334
-0.9308933478 0.9905680174 -0.3743993547
-0.9443692641 0.03894338675 -0.3840315041
1.08817093 0.9508560134 1.304913874
-0.2564011756 0.9755449813 1.798614039
-0.2560768105 0.03472432092 1.782145498
1.075250345 -0.0007929887205 1.284834377
CELLS 5 45
8 7 6 5 4 3 2 1 0
8 11 10 9 8 1 2 3 0
8 12 13 8 9 7 4 0 3
8 17 16 15 14 5 4 7 6
8 10 11 17 14 2 1 5 6
CELL_TYPES 5
12
12
12
12
12
POINT_DATA 18
SCALARS fixed int
LOOKUP_TABLE default
0
0
0
0
0
0
0
0
0
0
0
0
0
0
0
0
0
0
