# vtk DataFile Version 3.0
Mesquite Mesh
ASCII
DATASET UNSTRUCTURED_GRID
POINTS 20 double
0.2207125084 0.008205136988 -0.421140728
1.110825295 0.02520707222 -0.8172573076
0.8615961905 1.042244578 -0.553728204
0.2106194073 1.043201897 -0.4235727915
-0.2302450433 0.01835077183 0.1932641349
1.039225895 0.0280885704 -0.1021834147
0.8997296433 1.036211185 0.03461047975
-0.2579480434 1.003544862 0.1966778361
0.2115528023 0.03714499935 -1.050002692
0.1742018652 1.061961123 -1.005600705
1.306414958 1.23829086 -1.169685959
1.482826437 0.2985667012 -1.340411621
-0.4952605149 1.027256601 -1.293311355
-0.4471398574 0.02445092322 -1.307219797
1.566050699 1.058013842 0.3287890917
0.500821059 0.9782989093 1.024282539
0.5678792337 0.06891960317 0.9977496274
1.686797968 0.09605968908 0.2166745119
0.5653813153 0.1483564544 -2.071590497
0.5370319874 1.070941309 -2.028543965
CELLS 6 54
8 7 6 5 4 3 2 1 0
8 11 10 9 8 1 2 3 0
8 12 13 8 9 7 4 0 3
8 17 16 15 14 5 4 7 6
8 10 11 17 14 2 1 5 6
8 18 19 12 13 11 10 9 8
CELL_TYPES 6
12
12
12
12
12
12
POINT_DATA 20
SCALARS fixed int
LOOKUP_TABLE default
0
0
0
0
0
0
0
0
0
0
0
0
0
0
0
0
0
0
0
0
