# vtk DataFile Version 3.0
Mesquite Mesh
ASCII
DATASET UNSTRUCTURED_GRID
POINTS 20 double
0.1818967124 0.008698954687 -0.5266526399
0.9723586412 0.02511788751 -1.086534699
0.6594059125 0.9926480558 -0.7297054081
0.1773854857 1.042183652 -0.5914681521
-0.1260791864 0.03122295432 -0.07410836155
0.9347828993 0.06756750316 -0.216169315
0.7374154027 1.054689812 -0.1274275563
-0.1993628356 1.027269512 -0.09010286194
0.2743532462 0.0322726376 -1.118020154
0.1750178132 1.049599692 -1.051757122
0.8427803255 1.20326675 -1.441199094
1.118375147 0.3387924038 -1.598313211
-0.4057062914 1.044981239 -1.024740441
-0.2994545803 0.0374972376 -1.083128885
1.201951457 1.089869199 0.2025805433
-0.539864127 0.9528923752 0.3473901521
-0.4561513416 0.03360471295 0.3316059709
1.328284939 0.1906580444 0.1420861239
-0.7085789828 0.09026499761 -1.464313304
-0.8388956281 1.005877105 -1.395131467
CELLS 7 63
8 7 6 5 4 3 2 1 0
8 11 10 9 8 1 2 3 0
8 12 13 8 9 7 4 0 3
8 17 16 15 14 5 4 7 6
8 10 11 17 14 2 1 5 6
8 18 19 12 13 11 10 9 8
8 18 19 15 16 13 12 7 4
CELL_TYPES 7
12
12
12
12
12
12
12
POINT_DATA 20
SCALARS fixed int
LOOKUP_TABLE default
0
0
0
0
0
0
0
0
0
0
0
0
0
0
0
0
0
0
0
0
