# vtk DataFile Version 3.0
Mesquite Mesh
ASCII
DATASET UNSTRUCTURED_GRID
POINTS 24 double
0.1818967124 0.008698954687 -0.5266526399
0.9723586412 0.02511788751 -1.086534699
0.6323320228 1.001891945 -0.7523295411
0.1798354457 1.034997063 -0.5648371922
-0.1050129864 0.02620058524 -0.0995792582
0.9753553509 0.09824990969 -0.267419334
0.7254489588 1.098185375 -0.1725940852
-0.177734857 1.052699215 -0.06928941943
0.2908985948 0.08467975129 -1.140582732
0.1607786432 1.11867979 -1.027908731
0.7774424358 1.320544284 -1.44546775
1.076885281 0.4471683262 -1.625582854
-0.3512086316 1.115073181 -0.9854331961
-0.2201690618 0.07347965209 -1.103097604
1.158129173 1.233290642 0.1308956541
-0.5097528219 0.9595843225 0.3434774948
-0.4206824724 0.03268527856 0.3013596792
1.360870707 0.3185911989 0.08162070255
-0.5812721404 0.1265477713 -1.479580048
-0.7613479823 1.03384041 -1.361235282
0.7766158515 0.4490276113 -2.517296729
-0.5182590388 0.2028749946 -2.422365219
-0.6876875562 1.101820734 -2.357587214
0.6170284975 1.341175975 -2.398434204
CELLS 8 72
8 7 6 5 4 3 2 1 0
8 11 10 9 8 1 2 3 0
8 12 13 8 9 7 4 0 3
8 17 16 15 14 5 4 7 6
8 10 11 17 14 2 1 5 6
8 18 19 12 13 11 10 9 8
8 18 19 15 16 13 12 7 4
8 23 22 21 20 10 19 18 11
CELL_TYPES 8
12
12
12
12
12
12
12
12
POINT_DATA 24
SCALARS fixed int
LOOKUP_TABLE default
0
0
0
0
0
0
0
0
0
0
0
0
0
0
0
0
0
0
0
0
0
0
0
0
