# vtk DataFile Version 3.0
Mesquite Mesh
ASCII
DATASET UNSTRUCTURED_GRID
POINTS 26 double
0.1973245308 -0.1004130403 -0.5936059008
0.9814559863 -0.01354131105 -1.115549246
0.6010525941 0.9343881357 -0.7485023164
0.1640725025 0.9293768377 -0.5822349295
-0.1321380317 -0.09512283439 -0.1772645079
1.007057002 0.04443356359 -0.325896445
0.6888637325 1.01316956 -0.2106926277
-0.1892659588 0.9281234633 -0.1010789496
0.3601603584 -0.05126932569 -1.251566991
0.1505611901 1.039917488 -1.038591581
0.6980302913 1.35763496 -1.412745065
1.011866078 0.5577200458 -1.660320276
-0.3306527737 0.9833218695 -1.005160063
-0.2116726606 -0.0821380062 -1.213799357
1.122557624 1.173951868 0.1142580426
-0.5170431189 0.8621142139 0.3112377924
-0.414820348 -0.04673660701 0.2249255577
1.375540217 0.2899362501 0.027910315
-0.6197087335 0.2783520156 -1.553284087
-0.7177646152 1.139008352 -1.341603742
0.7776420218 0.2360470303 -2.484152589
-0.3694605486 0.1222011064 -2.467351554
-0.6117640033 0.8851707409 -2.460261496
0.6283720969 1.103889572 -2.502166754
-0.3418394708 -0.8422031632 -1.995741506
0.8262571629 -0.6599076123 -1.851081243
CELLS 9 81
8 7 6 5 4 3 2 1 0
8 11 10 9 8 1 2 3 0
8 12 13 8 9 7 4 0 3
8 17 16 15 14 5 4 7 6
8 10 11 17 14 2 1 5 6
8 18 19 12 13 11 10 9 8
8 18 19 15 16 13 12 7 4
8 23 22 21 20 10 19 18 11
8 24 25 20 21 13 8 11 18
CELL_TYPES 9
12
12
12
12
12
12
12
12
12
POINT_DATA 26
SCALARS fixed int
LOOKUP_TABLE default
0
0
0
0
0
0
0
0
0
0
0
0
0
0
0
0
0
0
0
0
0
0
0
0
0
0
