# vtk DataFile Version 3.0
Mesquite Mesh
ASCII
DATASET UNSTRUCTURED_GRID
POINTS 28 double
0.2128162102 -0.182821946 -0.7349027355
0.9961741142 -0.09299694801 -1.230007706
0.5990011118 0.846873874 -0.9179890172
0.1795648773 0.8059559281 -0.7731022855
-0.1238353865 -0.1466135403 -0.2946872489
1.006878514 0.01781432786 -0.4365826459
0.6821529599 0.9789037284 -0.3806762043
-0.1813560724 0.8659432825 -0.305151171
0.4139054228 -0.2095399926 -1.443199339
0.194849138 0.8250833129 -1.222968769
0.6977773475 1.268872447 -1.573846953
1.010246078 0.4610070785 -1.801423397
-0.265280027 0.8330346314 -1.190783108
-0.2382978978 -0.2204337208 -1.368878239
1.084515275 1.216620592 -0.06034612189
-0.5218239695 0.9307513485 0.09499871678
-0.4562840548 0.01416219375 0.1075484403
1.363148 0.3403524246 -0.07930534795
-0.6231765798 0.2367656397 -1.676895639
-0.6364682684 1.086663769 -1.52710496
0.7312986808 0.2258517696 -2.484569033
-0.3907589984 0.0762915011 -2.39489498
-0.4880485612 0.7608200444 -2.867216466
0.5331879337 0.9096510544 -2.944562811
-0.2756298738 -0.7687281785 -2.545252181
0.6740150332 -0.6703176557 -2.60200955
0.6397820905 -0.1870400484 -3.452202131
-0.4992866793 -0.3341998441 -3.382517409
CELLS 10 90
8 7 6 5 4 3 2 1 0
8 11 10 9 8 1 2 3 0
8 12 13 8 9 7 4 0 3
8 17 16 15 14 5 4 7 6
8 10 11 17 14 2 1 5 6
8 18 19 12 13 11 10 9 8
8 18 19 15 16 13 12 7 4
8 23 22 21 20 10 19 18 11
8 24 25 20 21 13 8 11 18
8 26 27 24 25 23 22 21 20
CELL_TYPES 10
12
12
12
12
12
12
12
12
12
12
POINT_DATA 28
SCALARS fixed int
LOOKUP_TABLE default
0
0
0
0
0
0
0
0
0
0
0
0
0
0
0
0
0
0
0
0
0
0
0
0
0
0
0
0
