# vtk DataFile Version 3.0
Mesquite Mesh
ASCII
DATASET UNSTRUCTURED_GRID
POINTS 30 double
1.234439085 -0.493933449 0.0608811694
2.37688717 -0.8757927734 -0.461230928
1.959509216 0.088605655 -0.7155552369
1.299662957 0.5832089946 -0.4239780786
1.129900289 -0.2728222866 0.3437592484
1.68318635 -0.5213346154 0.7385924469
1.346689623 0.3998367821 0.6903429803
1.039474508 0.7688239365 0.2039912937
0.8625992815 -0.6634611096 -0.06472418901
0.7924130609 0.333692372 -0.5150175218
1.138339161 0.02487073694 -0.7909798771
1.321567177 -0.9728049877 -0.4823536707
0.2871650215 -0.6071293565 0.09310424855
0.1399686004 0.3815236848 -0.2271103161
2.369510097 0.6392031323 -0.4179908483
2.008733349 0.7705405637 0.610717521
2.319027439 0.2369146437 0.7681897862
2.793665243 0.0593312436 -0.210800862
2.136384951 1.51248693 0.5537910627
2.460157811 1.3864449 -0.3717909801
0.6063932064 -0.9476303865 -0.76029818
0.5700507256 0.02378433971 -1.14357753
3.4400737 0.452254511 0.1275126207
3.067014552 0.4859192682 1.035049281
0.4773928635 -1.097241269 -1.271077972
-0.1971961104 -0.6250678985 0.3601397205
-0.3556959877 0.2089516107 0.03931003288
0.383669429 -0.212143816 -1.588936115
3.258737189 -0.7438667191 0.2073822103
2.739758524 -0.588490416 1.116197776
CELLS 11 99
8 7 6 5 4 3 2 1 0
8 11 10 9 8 1 2 3 0
8 12 13 7 4 8 9 3 0
8 17 16 15 14 1 5 6 2
8 18 19 14 15 7 3 2 6
8 20 21 13 12 11 10 9 8
8 22 23 18 19 17 16 15 14
8 27 26 25 24 21 13 12 20
8 1 2 27 24 11 10 21 20
8 6 5 25 26 7 4 12 13
8 28 29 23 22 1 5 16 17
CELL_TYPES 11
12
12
12
12
12
12
12
12
12
12
12
POINT_DATA 30
SCALARS fixed int
LOOKUP_TABLE default
0
0
0
0
0
0
0
0
0
0
0
0
0
0
0
0
0
0
0
0
0
0
0
0
0
0
0
0
0
0
