# vtk DataFile Version 3.0
Mesquite Mesh
ASCII
DATASET UNSTRUCTURED_GRID
POINTS 30 double
0.9585274057 0.6502231223 -0.2174369183
1.514600493 -0.6663043402 -0.7726528248
1.964909103 0.6040112579 -0.8397033325
2.026411242 1.75602329 -0.4172051372
1.099394211 0.9529927715 0.111551525
1.205082666 0.06931879511 0.3988546839
1.489762514 1.031846806 0.5991582114
1.764361879 1.912164026 0.3389323945
0.7544821736 0.9080524362 -0.3946804009
1.329145126 1.824612722 -0.6397020549
1.385489626 1.199181805 -0.972615114
0.8485844952 0.2800475193 -0.7602905214
0.2889819553 1.16671088 -0.211863742
0.6529321147 2.115374075 -0.3575716762
2.308467749 0.6826565891 -0.5907248939
1.898904173 0.8654106624 0.4771911694
1.947340558 0.4062087215 0.3993928411
2.341979382 0.07800232437 -0.5358132831
2.129221859 1.240688801 0.6443273887
2.503550811 1.146191667 -0.3016823701
0.3845093454 0.7333758178 -1.013006756
0.8697956149 1.590060848 -1.346849658
3.11362174 0.6360735951 -0.04429952695
2.668299986 0.6975914804 0.908951554
0.1137318752 0.5303916728 -1.480381582
-0.238146847 1.082693753 0.02096058267
-0.009092590084 1.971879514 -0.07395765659
0.5225125958 1.336579353 -1.800956146
3.467528066 0.5673443416 0.2173822845
3.086449365 0.5933624911 1.066491583
CELLS 12 108
8 7 6 5 4 3 2 1 0
8 11 10 9 8 1 2 3 0
8 12 13 7 4 8 9 3 0
8 17 16 15 14 1 5 6 2
8 18 19 14 15 7 3 2 6
8 20 21 13 12 11 10 9 8
8 22 23 18 19 17 16 15 14
8 27 26 25 24 21 13 12 20
8 1 2 27 24 11 10 21 20
8 6 5 25 26 7 4 12 13
8 28 29 23 22 1 5 16 17
8 28 29 7 3 22 23 18 19
CELL_TYPES 12
12
12
12
12
12
12
12
12
12
12
12
12
POINT_DATA 30
SCALARS fixed int
LOOKUP_TABLE default
0
0
0
0
0
0
0
0
0
0
0
0
0
0
0
0
0
0
0
0
0
0
0
0
0
0
0
0
0
0
