# vtk DataFile Version 3.0
Mesquite Mesh
ASCII
DATASET UNSTRUCTURED_GRID
POINTS 32 double
0.4324777008 0.1199650653 -0.0234834131
1.514555685 -0.6663128784 -0.7726621584
1.972071978 0.2150138289 -0.4008084976
1.809114411 1.009072582 0.547237638
0.5912894498 0.1857000912 0.3113520482
1.061035523 -0.1888566851 0.3873961531
1.131386624 0.2337693161 0.8179985847
1.242134108 0.8746580964 0.8736925996
0.4308248361 0.4313783558 -0.0965670092
1.028370428 1.293676161 0.03958603157
1.177643494 0.8403159245 -0.5301436863
0.6677025549 -0.0320419948 -0.6004289749
-0.1983695653 0.3783043687 0.1059825722
0.1681442769 1.326977292 0.2105853768
2.357330113 -0.1136432143 -0.3641374919
1.709501132 -0.0160015808 0.4231477521
1.526990682 -0.36161398 0.4294987641
2.100576975 -0.7951820832 -0.2388806635
1.723387574 0.1095837269 0.6866387624
2.51797123 0.1706770731 0.2492878331
0.07096653297 0.2073242159 -0.7877304682
0.4942039137 1.136290783 -0.8463876244
2.147426013 -0.8404024059 0.6977421604
1.40497636 -0.3726629906 1.164505251
-0.124859581 0.162506602 -1.315874802
-0.6865714067 0.3195345835 0.3479589296
-0.4579773088 1.200731083 0.4122013837
0.2310162581 1.001578771 -1.379288169
2.001300104 -1.062598331 1.077340068
1.290291969 -0.6872765066 1.573903416
0.4390914134 -0.8223815464 1.123549284
0.904897797 -1.156890175 0.4940302573
CELLS 13 117
8 7 6 5 4 3 2 1 0
8 11 10 9 8 1 2 3 0
8 12 13 7 4 8 9 3 0
8 17 16 15 14 1 5 6 2
8 18 19 14 15 7 3 2 6
8 20 21 13 12 11 10 9 8
8 22 23 18 19 17 16 15 14
8 27 26 25 24 21 13 12 20
8 1 2 27 24 11 10 21 20
8 6 5 25 26 7 4 12 13
8 28 29 23 22 1 5 16 17
8 28 29 7 3 22 23 18 19
8 30 31 0 4 29 28 1 5
CELL_TYPES 13
12
12
12
12
12
12
12
12
12
12
12
12
12
POINT_DATA 32
SCALARS fixed int
LOOKUP_TABLE default
0
0
0
0
0
0
0
0
0
0
0
0
0
0
0
0
0
0
0
0
0
0
0
0
0
0
0
0
0
0
0
0
