# vtk DataFile Version 3.0
Mesquite Mesh
ASCII
DATASET UNSTRUCTURED_GRID
POINTS 32 double
0.7772555901 -0.2134624434 -0.5125728818
1.514604045 -0.6663228347 -0.7727428875
2.03715106 0.1864111566 -0.5626041023
1.753175002 0.867957509 0.4241416556
0.8390777892 -0.03038344331 -0.07803584098
1.047604329 -0.2699732021 0.2931707533
1.041923872 0.0638142432 0.6636932566
1.182046485 0.6348624511 0.7143833648
0.9201025538 0.1935658636 -0.5331550159
1.363329538 1.086554434 -0.1283326461
1.669757758 0.8203144282 -0.5204437032
1.149197651 -0.06772474834 -0.7318800262
0.3982812948 -0.005567433202 -0.7962276183
0.6275367076 0.9645466261 -0.5543003646
2.378266729 -0.03061169128 -0.8284453297
1.848163723 -0.1114052015 0.07721751109
1.721181014 -0.4624888662 0.006300591551
2.076454932 -0.7670297173 -0.9059410216
1.965615297 0.01533350889 0.3924052986
2.705706293 0.1718214076 0.1737160413
0.7247190421 0.2532357439 -0.9118562955
1.033257484 1.218270521 -0.8617454774
2.495380363 -0.882524558 0.4574641063
1.738876298 -0.5461054243 0.6685924255
0.567379709 0.1454533647 -1.111535345
-0.1020837121 -0.1683744236 -1.302712232
-0.03548563901 0.6546997666 -1.525459396
0.8151158204 0.9374814614 -1.21784345
1.936925069 -1.06160921 1.041099212
1.113579919 -0.715371992 1.240610415
0.4133137719 -0.9616696546 0.6564828784
1.091538579 -1.362636499 0.2714174677
CELLS 14 126
8 7 6 5 4 3 2 1 0
8 11 10 9 8 1 2 3 0
8 12 13 7 4 8 9 3 0
8 17 16 15 14 1 5 6 2
8 18 19 14 15 7 3 2 6
8 20 21 13 12 11 10 9 8
8 22 23 18 19 17 16 15 14
8 27 26 25 24 21 13 12 20
8 1 2 27 24 11 10 21 20
8 6 5 25 26 7 4 12 13
8 28 29 23 22 1 5 16 17
8 28 29 7 3 22 23 18 19
8 30 31 0 4 29 28 1 5
8 17 14 26 25 1 2 27 24
CELL_TYPES 14
12
12
12
12
12
12
12
12
12
12
12
12
12
12
POINT_DATA 32
SCALARS fixed int
LOOKUP_TABLE default
0
0
0
0
0
0
0
0
0
0
0
0
0
0
0
0
0
0
0
0
0
0
0
0
0
0
0
0
0
0
0
0
