# vtk DataFile Version 3.0
Mesquite Mesh
ASCII
DATASET UNSTRUCTURED_GRID
POINTS 32 double
0.6694394926 -0.4965447515 -0.5778225116
1.325911327 -0.7800877454 -1.128367534
1.83923783 0.2201912265 -0.614962642
1.664224311 0.5932113406 0.3932297966
0.7186843158 -0.2918159561 -0.1598117951
0.9775935144 -0.4249167077 0.1639350561
1.127166684 -0.1740162277 0.4792385409
1.272084014 0.2079976176 0.5387522041
1.019668205 0.3448675653 -0.08201451775
1.457372298 1.013557382 0.7327826039
1.766597041 0.9736452525 -0.09974526604
1.223020822 0.2370767134 -0.4119530605
0.6570394565 0.5276804565 0.0007078281859
0.6243671798 1.016412615 0.6171749847
2.240573879 0.1874350655 -0.9662526067
1.874814436 -0.1411571152 -0.2122448066
1.712621698 -0.470499464 -0.350234423
1.910650249 -0.6258799203 -1.321581315
2.117390213 -0.05632926649 0.1141559837
2.750865528 0.1845884906 0.06280567311
0.8823152284 0.7167176602 -0.1987330025
1.065991476 1.517135376 0.05422832613
2.548316621 -0.9195962856 0.1102715372
1.935908533 -0.5739411588 0.2235748084
0.6511413935 0.1807739201 -0.5321835167
0.09001629796 0.1099595247 -0.6309039117
-0.159098796 0.6050529166 -0.5471089811
0.7856631313 1.029105921 -0.503721118
1.824910495 -0.9351118308 0.8006600409
1.074677702 -0.5239496413 0.870557235
0.5489403502 -0.4725861875 1.286011002
1.239899784 -0.9483880532 1.329922154
CELLS 15 135
8 7 6 5 4 3 2 1 0
8 11 10 9 8 1 2 3 0
8 12 13 7 4 8 9 3 0
8 17 16 15 14 1 5 6 2
8 18 19 14 15 7 3 2 6
8 20 21 13 12 11 10 9 8
8 22 23 18 19 17 16 15 14
8 27 26 25 24 21 13 12 20
8 1 2 27 24 11 10 21 20
8 6 5 25 26 7 4 12 13
8 28 29 23 22 1 5 16 17
8 28 29 7 3 22 23 18 19
8 30 31 0 4 29 28 1 5
8 17 14 26 25 1 2 27 24
8 31 30 13 9 28 29 7 3
CELL_TYPES 15
12
12
12
12
12
12
12
12
12
12
12
12
12
12
12
POINT_DATA 32
SCALARS fixed int
LOOKUP_TABLE default
0
0
0
0
0
0
0
0
0
0
0
0
0
0
0
0
0
0
0
0
0
0
0
0
0
0
0
0
0
0
0
0
