# vtk DataFile Version 3.0
Mesquite Mesh
ASCII
DATASET UNSTRUCTURED_GRID
POINTS 32 double
0.5768131901 -0.4401021422 -0.5513058304
1.150050779 -0.5523813734 -1.148152031
1.722575894 0.3379028705 -0.6850516259
1.683716283 0.5756602099 0.2974952226
0.6393734667 -0.3157262391 -0.2259735092
0.9941323796 -0.3857237993 0.07403746511
1.265125166 -0.1591942963 0.3022432725
1.40687429 0.1793161145 0.3718799956
0.9299347666 0.515122024 0.005207415258
1.32992188 0.9538575672 0.861577686
1.726207239 1.222251147 -0.05677208761
1.213464913 0.6128697553 -0.3186179509
0.5571301766 0.7117611114 0.1760244923
0.3529912616 0.8373141644 0.7392421854
2.133603036 0.3270638173 -1.077648598
1.922337066 -0.05038864166 -0.4354124095
1.729714579 -0.3846142879 -0.55310656
1.75715834 -0.4534323017 -1.461641049
2.243486164 -0.01062417984 -0.09508751334
2.829834297 0.2312625506 -0.1140671741
0.9185929087 1.101477102 -0.219099571
0.9580186863 1.767719936 -0.09843920985
2.572560762 -0.949356576 -0.18840164
2.056060537 -0.5654197445 -0.08042503744
0.7772102677 0.6641367992 -0.6578702256
0.2927745304 0.4116412926 -0.3860162138
-0.1266565381 0.3724683658 -0.4735149137
0.6667505353 1.129220375 -1.134931108
1.786695961 -0.9595594126 0.6662177356
1.28783014 -0.5041580451 0.567973982
0.5364406913 -0.2560294965 0.8455833915
0.9896799854 -0.8169019599 1.142712992
CELLS 16 144
8 7 6 5 4 3 2 1 0
8 11 10 9 8 1 2 3 0
8 12 13 7 4 8 9 3 0
8 17 16 15 14 1 5 6 2
8 18 19 14 15 7 3 2 6
8 20 21 13 12 11 10 9 8
8 22 23 18 19 17 16 15 14
8 27 26 25 24 21 13 12 20
8 1 2 27 24 11 10 21 20
8 6 5 25 26 7 4 12 13
8 28 29 23 22 1 5 16 17
8 28 29 7 3 22 23 18 19
8 30 31 0 4 29 28 1 5
8 17 14 26 25 1 2 27 24
8 31 30 13 9 28 29 7 3
8 20 24 29 30 12 25 5 4
CELL_TYPES 16
12
12
12
12
12
12
12
12
12
12
12
12
12
12
12
12
POINT_DATA 32
SCALARS fixed int
LOOKUP_TABLE default
0
0
0
0
0
0
0
0
0
0
0
0
0
0
0
0
0
0
0
0
0
0
0
0
0
0
0
0
0
0
0
0
