# vtk DataFile Version 3.0
Mesquite Mesh
ASCII
DATASET UNSTRUCTURED_GRID
POINTS 34 double
0.5403917094 -0.3878673292 -0.4931171145
1.12295903 -0.527839158 -1.113504181
1.70753341 0.3449626862 -0.6823371727
1.667165924 0.5157927481 0.2852148938
0.6095272141 -0.2694187595 -0.1800981459
0.9859953566 -0.3639573461 0.09629937023
1.268352242 -0.1706969838 0.2961150622
1.410539115 0.1526665468 0.3513969735
0.9794293963 0.5840043636 0.05296468189
1.477031742 1.009188313 0.7955624951
1.680857638 1.301172528 -0.1509187582
1.188124681 0.6532174283 -0.3438559366
0.5715432859 0.7754143748 0.2012334193
0.4030409613 0.9315626339 0.7674522365
2.214053283 0.3583362474 -1.032509408
1.94740004 -0.05336208434 -0.4537982855
1.722317901 -0.400130137 -0.5762184232
1.756725375 -0.438005284 -1.440363669
2.218779155 -0.07575474039 -0.1080491626
2.788477152 0.167133876 -0.06316892089
0.8980787936 1.125368212 -0.268559522
0.9178731019 1.832288936 -0.2150170476
2.497282254 -1.042043691 -0.2100531885
2.03640885 -0.6114488192 -0.1122608752
0.7457262897 0.7111101459 -0.6765360958
0.3140587272 0.4538526013 -0.3111010095
-0.1200701187 0.400874076 -0.3832211823
0.6115999048 1.105133676 -1.181113096
1.72164211 -0.9940068197 0.6515038459
1.263529685 -0.5135793019 0.5534875929
0.5278682898 -0.1828349748 0.8349002872
0.9340570032 -0.7829810999 1.140058257
2.516549883 1.322653507 -0.4800011225
2.697813171 1.039081731 0.4178886762
CELLS 17 153
8 7 6 5 4 3 2 1 0
8 11 10 9 8 1 2 3 0
8 12 13 7 4 8 9 3 0
8 17 16 15 14 1 5 6 2
8 18 19 14 15 7 3 2 6
8 20 21 13 12 11 10 9 8
8 22 23 18 19 17 16 15 14
8 27 26 25 24 21 13 12 20
8 1 2 27 24 11 10 21 20
8 6 5 25 26 7 4 12 13
8 28 29 23 22 1 5 16 17
8 28 29 7 3 22 23 18 19
8 30 31 0 4 29 28 1 5
8 17 14 26 25 1 2 27 24
8 31 30 13 9 28 29 7 3
8 20 24 29 30 12 25 5 4
8 32 33 9 10 14 19 3 2
CELL_TYPES 17
12
12
12
12
12
12
12
12
12
12
12
12
12
12
12
12
12
POINT_DATA 34
SCALARS fixed int
LOOKUP_TABLE default
0
0
0
0
0
0
0
0
0
0
0
0
0
0
0
0
0
0
0
0
0
0
0
0
0
0
0
0
0
0
0
0
0
0
