# vtk DataFile Version 3.0
Mesquite Mesh
ASCII
DATASET UNSTRUCTURED_GRID
POINTS 36 double
0.9723245147 -1.299463422 -0.8806128449
1.137207466 -0.5337557149 -1.119705513
1.516576947 0.5664437627 -0.7117738399
1.615106526 0.5854554196 0.2040782641
1.224281475 -0.6936981234 -0.3799728032
1.500869329 -0.4735991654 -0.1263087891
1.670738662 -0.1099078411 0.08833981151
1.654603147 0.2369355409 0.1728118497
0.9997963639 0.291886847 -0.1286430085
1.347449404 0.9815334045 0.6882681759
1.482430657 1.411455051 -0.1496634931
1.154384216 0.6474853634 -0.3561022823
0.6172093808 0.546060865 0.08732901345
0.4501568239 0.5686838369 0.6772227246
2.111955505 0.6604444682 -1.082843449
2.080960778 0.2212098882 -0.5845859666
1.938427937 -0.258880848 -0.7396214962
1.861855317 -0.3125650203 -1.518830594
2.410608734 0.2267732343 -0.1697515012
2.841401643 0.5676482311 -0.07077304574
0.8385477541 1.060103198 -0.2856370514
0.7644672988 1.785320246 -0.1319180905
2.769211382 -0.8087890741 -0.4222942578
2.322239759 -0.4015848071 -0.2862065402
0.7104098813 0.7156426538 -0.7177166379
0.4212976032 0.3234552174 -0.4557632342
0.01158249496 0.16990875 -0.4548147942
0.5003210799 1.154396965 -1.185810508
2.177268888 -0.7920724376 0.3937501985
1.76647099 -0.5315200551 0.2518287717
0.9369957878 -0.5113244135 0.4541073665
1.557658497 -1.165328366 0.6233162217
2.317399481 1.601686433 -0.4885857677
2.534966344 1.315065157 0.4212189513
2.244742783 -1.632837255 -0.1887337189
1.798123564 -1.438148677 -1.264278547
CELLS 18 162
8 7 6 5 4 3 2 1 0
8 11 10 9 8 1 2 3 0
8 12 13 7 4 8 9 3 0
8 17 16 15 14 1 5 6 2
8 18 19 14 15 7 3 2 6
8 20 21 13 12 11 10 9 8
8 22 23 18 19 17 16 15 14
8 27 26 25 24 21 13 12 20
8 1 2 27 24 11 10 21 20
8 6 5 25 26 7 4 12 13
8 28 29 23 22 1 5 16 17
8 28 29 7 3 22 23 18 19
8 30 31 0 4 29 28 1 5
8 17 14 26 25 1 2 27 24
8 31 30 13 9 28 29 7 3
8 20 24 29 30 12 25 5 4
8 32 33 9 10 14 19 3 2
8 34 35 0 31 22 17 1 28
CELL_TYPES 18
12
12
12
12
12
12
12
12
12
12
12
12
12
12
12
12
12
12
POINT_DATA 36
SCALARS fixed int
LOOKUP_TABLE default
0
0
0
0
0
0
0
0
0
0
0
0
0
0
0
0
0
0
0
0
0
0
0
0
0
0
0
0
0
0
0
0
0
0
0
0
