# vtk DataFile Version 3.0
Mesquite Mesh
ASCII
DATASET UNSTRUCTURED_GRID
POINTS 14 double
-5.503540206e-06 3.936823336e-21 -5.518252272e-21
0.9473892221 -4.263814144e-16 2.673230761e-16
0.9330271792 0.997258387 5.757484722e-17
0.01868052307 1.016952492 4.445262355e-17
-0.445314396 0.01640221017 0.7902951597
0.6138615799 0.002482955645 1.029034531
0.6198745626 0.9992560961 1.031127933
-0.4407794467 0.9992099604 0.7887914246
-0.445314396 0.01640221017 -0.7902951597
-0.4407794467 0.9992099604 -0.7887914246
0.6198745626 0.9992560961 -1.031127933
0.6138615799 0.002482955645 -1.029034531
-1.182792741 0.008260821945 -2.046780427e-16
-1.171897596 1.016882638 2.281008026e-17
CELLS 3 27
8 7 6 5 4 3 2 1 0
8 11 10 9 8 1 2 3 0
8 12 13 7 4 8 9 3 0
CELL_TYPES 3
12
12
12
POINT_DATA 14
SCALARS fixed int
LOOKUP_TABLE default
0
0
0
0
0
0
0
0
0
0
0
0
0
0
