# vtk DataFile Version 3.0
Mesquite Mesh
ASCII
DATASET UNSTRUCTURED_GRID
POINTS 18 double
-5.503540206e-06 3.936823336e-21 -5.518252272e-21
0.9473892221 -4.263814144e-16 2.673230761e-16
0.9345417803 0.9984482483 0.007617425835
0.01885542791 1.016799425 0.002023395168
-0.4424964869 0.0128692755 0.7848323326
0.6332610887 -0.001915946975 0.9958522001
0.6327463036 0.994781207 1.005989799
-0.4338841738 1.005384814 0.7854241529
-0.4454811785 0.01863213074 -0.7901178074
-0.4347168735 1.009103981 -0.7880319232
0.6233621002 1.002646828 -1.025508506
0.6163907529 0.01138857177 -1.029801602
-1.183222997 0.02049435431 -0.00308808288
-1.17133647 1.017626139 0.0002489587912
1.882162778 1.008929017 0.3237829553
1.586960707 0.9952748479 1.284797677
1.589194601 0.003576514413 1.282953375
1.890221632 0.005007454721 0.3171454339
CELLS 4 36
8 7 6 5 4 3 2 1 0
8 11 10 9 8 1 2 3 0
8 12 13 7 4 8 9 3 0
8 17 16 15 14 1 5 6 2
CELL_TYPES 4
12
12
12
12
POINT_DATA 18
SCALARS fixed int
LOOKUP_TABLE default
0
0
0
0
0
0
0
0
0
0
0
0
0
0
0
0
0
0
