# vtk DataFile Version 3.0
Mesquite Mesh
ASCII
DATASET UNSTRUCTURED_GRID
POINTS 20 double
-0.08128521562 0.3472673423 0.04335470697
0.8800877702 0.05608920219 0.006592375969
0.9606386591 0.99303158 0.0002136773786
0.1531289625 1.370034884 -0.01505292608
-0.4613374342 0.4522761691 0.8442947526
0.6276491531 0.06521964065 1.006639314
0.6270800915 0.9721242922 1.030753336
-0.1791711894 1.440231793 0.8264905992
-0.5617830759 0.427039438 -0.7076965599
-0.3258411101 1.396382679 -0.7855941414
0.6894737516 1.119136666 -1.014838102
0.4706396459 0.1648221791 -1.016903016
-1.22085828 0.6372373154 0.1009679499
-0.975269685 1.598877969 0.1098993117
1.676172679 1.456233605 0.3124751478
1.390626106 1.411743609 1.23559928
1.61247102 0.3703951559 1.293908879
1.882144512 0.3655821354 0.3112554482
0.6094657677 2.163325827 1.063734865
0.8838411381 2.149313711 0.08844612445
CELLS 5 45
8 7 6 5 4 3 2 1 0
8 11 10 9 8 1 2 3 0
8 12 13 7 4 8 9 3 0
8 17 16 15 14 1 5 6 2
8 18 19 14 15 7 3 2 6
CELL_TYPES 5
12
12
12
12
12
POINT_DATA 20
SCALARS fixed int
LOOKUP_TABLE default
0
0
0
0
0
0
0
0
0
0
0
0
0
0
0
0
0
0
0
0
