# vtk DataFile Version 3.0
Mesquite Mesh
ASCII
DATASET UNSTRUCTURED_GRID
POINTS 22 double
-0.158826652 0.3689007366 -0.07396587039
0.7887798169 0.07668130334 -0.2362572921
0.8569610336 1.015650988 -0.2525683392
0.0785603673 1.403789916 -0.2013932786
-0.6474120534 0.5099975565 0.5831704577
0.4923638404 0.09697310506 0.7744425427
0.4850838931 0.9822606817 0.7610503796
-0.3375763038 1.477799139 0.5810739502
-0.545451966 0.3835976757 -0.6958484177
-0.305011867 1.395409064 -0.7925158338
0.1871260297 1.164587598 -1.470463098
-0.009866519466 0.2169376474 -1.373606534
-1.358588389 0.6187902803 -0.5234138605
-1.146622465 1.571420641 -0.6004693177
1.562121711 1.466514425 0.08448962447
1.238911703 1.405141771 1.036579413
1.46687362 0.3665376146 1.066378751
1.774455891 0.3863009697 0.1174542576
0.4708066306 2.176437886 0.848043562
0.7952705425 2.186934227 -0.06064531277
-1.105478487 0.4738866682 -1.610481116
-0.8670667973 1.425538859 -1.677532776
CELLS 6 54
8 7 6 5 4 3 2 1 0
8 11 10 9 8 1 2 3 0
8 12 13 7 4 8 9 3 0
8 17 16 15 14 1 5 6 2
8 18 19 14 15 7 3 2 6
8 20 21 13 12 11 10 9 8
CELL_TYPES 6
12
12
12
12
12
12
POINT_DATA 22
SCALARS fixed int
LOOKUP_TABLE default
0
0
0
0
0
0
0
0
0
0
0
0
0
0
0
0
0
0
0
0
0
0
