# vtk DataFile Version 3.0
Mesquite Mesh
ASCII
DATASET UNSTRUCTURED_GRID
POINTS 24 double
0.01076185393 0.4683812531 0.0001713888957
1.003287853 0.1446973475 -0.1624079823
1.001514425 1.05841003 -0.2354521769
0.3096872383 1.532545902 -0.1510455439
-0.4301829824 0.6377172285 0.6697994451
0.7438939099 0.2000168666 0.8475857034
0.6255793444 1.036844627 0.7812084796
-0.09033176134 1.609030992 0.6519672307
-0.3656386983 0.4905941924 -0.5964880884
-0.1110553504 1.496684502 -0.7165436207
0.3466564463 1.216748634 -1.42140112
0.148976545 0.2728308202 -1.268135794
-1.166880122 0.7337937356 -0.3956430093
-0.9362823524 1.688980368 -0.5165738212
1.576040877 1.437213515 0.05074618777
1.211024408 1.379238293 1.047662929
1.854250881 0.8221924104 1.210538906
2.174511285 0.8443867938 0.299025231
1.075977379 2.24829712 1.032265328
1.399122997 2.295026774 0.1405688213
-0.9457390233 0.5496804459 -1.492237998
-0.7027465433 1.490585328 -1.583892153
2.414443276 1.952966127 0.4267501207
2.098526192 1.895688862 1.376015754
CELLS 7 63
8 7 6 5 4 3 2 1 0
8 11 10 9 8 1 2 3 0
8 12 13 7 4 8 9 3 0
8 17 16 15 14 1 5 6 2
8 18 19 14 15 7 3 2 6
8 20 21 13 12 11 10 9 8
8 22 23 18 19 17 16 15 14
CELL_TYPES 7
12
12
12
12
12
12
12
POINT_DATA 24
SCALARS fixed int
LOOKUP_TABLE default
0
0
0
0
0
0
0
0
0
0
0
0
0
0
0
0
0
0
0
0
0
0
0
0
