# vtk DataFile Version 3.0
Mesquite Mesh
ASCII
DATASET UNSTRUCTURED_GRID
POINTS 28 double
0.01076185393 0.4683812531 0.0001713888957
1.003287853 0.1446973475 -0.1624079823
0.9994236307 1.048709583 -0.2499068897
0.3098469804 1.52411285 -0.1560186339
-0.4369160477 0.6357485111 0.6637015791
0.7247988375 0.18804594 0.8393110892
0.6093580547 1.021190625 0.7775381289
-0.1010296057 1.608785074 0.6276641496
-0.3571914389 0.4797711572 -0.5940924563
-0.1074375956 1.482495978 -0.7392130642
0.3631202658 1.196524518 -1.41667945
0.1371921906 0.2540456801 -1.26926518
-1.167460457 0.7255568432 -0.4207448935
-0.9201632495 1.682523489 -0.5330995266
1.567356929 1.410628216 0.05328835343
1.19475928 1.357485751 1.031486969
1.823847733 0.7907354693 1.215237775
2.161950124 0.8175624283 0.2912946585
1.062330837 2.21858975 1.032753954
1.397902226 2.26919692 0.1234413005
-0.9612056104 0.545375353 -1.449830561
-0.7138614899 1.491007126 -1.558209427
2.405327834 1.915869051 0.4404471145
2.083632309 1.866195653 1.364751349
-1.910333054 0.763886236 -1.650415976
-2.110064732 0.9352827872 -0.6813089684
-1.856874214 1.894286541 -0.7839341221
-1.659405165 1.721265598 -1.770582718
CELLS 8 72
8 7 6 5 4 3 2 1 0
8 11 10 9 8 1 2 3 0
8 12 13 7 4 8 9 3 0
8 17 16 15 14 1 5 6 2
8 18 19 14 15 7 3 2 6
8 20 21 13 12 11 10 9 8
8 22 23 18 19 17 16 15 14
8 27 26 25 24 21 13 12 20
CELL_TYPES 8
12
12
12
12
12
12
12
12
POINT_DATA 28
SCALARS fixed int
LOOKUP_TABLE default
0
0
0
0
0
0
0
0
0
0
0
0
0
0
0
0
0
0
0
0
0
0
0
0
0
0
0
0
