# vtk DataFile Version 3.0
Mesquite Mesh
ASCII
DATASET UNSTRUCTURED_GRID
POINTS 28 double
0.6105880097 0.2793686376 -0.4925704689
1.350358033 -0.1894204919 -1.766628946
1.253644535 0.8039663534 -1.688160401
0.8379774524 1.316625125 -0.7760221511
0.6487647786 0.3468325418 0.201815385
1.609586315 -0.2469284311 -0.6974184752
1.507545784 0.6077298876 -0.579019216
1.041815068 1.20886215 0.003189033137
-0.007365352055 0.3125695875 -0.6291463221
0.2123642469 1.304157887 -0.876586602
0.4362548009 1.037227304 -1.415071861
0.3448432548 0.006390553058 -1.340878529
-0.7316536305 0.5740793996 -0.3830556498
-0.5213593685 1.541449529 -0.5111934799
2.005670293 1.123083077 -1.513436038
2.169110569 0.8074097075 -0.5569093044
2.687947577 0.2153113199 -0.6815649347
2.64144565 0.4176653166 -1.67455375
2.155824936 1.657578522 -0.2040648676
2.086220766 1.897866825 -1.151439346
-0.4349323481 0.3068662921 -1.390053013
-0.1812393954 1.249687784 -1.582719301
3.020158929 1.493916084 -1.375467365
3.210391443 1.147270089 -0.4920154974
-0.5263979391 0.2506639765 -2.1498315
-1.436430071 0.662803636 -1.264754938
-1.19977906 1.546417733 -1.436994623
-0.3915875584 1.216785685 -2.246742141
CELLS 9 81
8 7 6 5 4 3 2 1 0
8 11 10 9 8 1 2 3 0
8 12 13 7 4 8 9 3 0
8 17 16 15 14 1 5 6 2
8 18 19 14 15 7 3 2 6
8 20 21 13 12 11 10 9 8
8 22 23 18 19 17 16 15 14
8 27 26 25 24 21 13 12 20
8 1 2 27 24 11 10 21 20
CELL_TYPES 9
12
12
12
12
12
12
12
12
12
POINT_DATA 28
SCALARS fixed int
LOOKUP_TABLE default
0
0
0
0
0
0
0
0
0
0
0
0
0
0
0
0
0
0
0
0
0
0
0
0
0
0
0
0
