# vtk DataFile Version 3.0
Mesquite Mesh
ASCII
DATASET UNSTRUCTURED_GRID
POINTS 28 double
0.8046894654 0.2153641114 -0.2592050627
1.816894795 -0.3246595371 -0.8100556711
1.663474341 0.655676204 -0.9547478181
1.076261198 1.269744066 -0.6278168841
0.665553703 0.4339717297 0.06827616682
1.086159173 0.1163901771 0.4870171264
1.046936581 0.994189061 0.4805185224
0.8829877064 1.454267432 0.002714853069
0.3238348576 0.1487863937 -0.4017343293
0.5368431175 1.150760404 -0.7687709197
0.7708390602 0.8241496607 -1.071907504
0.7248230214 -0.1997546893 -0.8760315265
-0.2358663119 0.3580052424 -0.2712081113
-0.1347491194 1.372955002 -0.461253314
2.207002229 1.032118485 -0.5136514246
1.911654982 1.124919495 0.4979830319
2.287918136 0.4605512094 0.7336854725
2.783364604 0.3551452142 -0.2282247891
1.937522224 1.990918212 0.4201739148
2.319074138 1.854359808 -0.5194625
-0.02100534886 0.04007888014 -1.14209772
0.2241063297 1.002366884 -1.435424057
3.166856225 1.413681108 -0.1648492226
2.942009772 1.414024189 0.763512153
-0.1350944421 -0.01449072304 -1.679193796
-0.7709368578 0.5087706089 -0.003969267854
-0.6298065644 1.356692125 -0.2324972724
-0.03321358386 0.9001528033 -1.883791144
CELLS 10 90
8 7 6 5 4 3 2 1 0
8 11 10 9 8 1 2 3 0
8 12 13 7 4 8 9 3 0
8 17 16 15 14 1 5 6 2
8 18 19 14 15 7 3 2 6
8 20 21 13 12 11 10 9 8
8 22 23 18 19 17 16 15 14
8 27 26 25 24 21 13 12 20
8 1 2 27 24 11 10 21 20
8 6 5 25 26 7 4 12 13
CELL_TYPES 10
12
12
12
12
12
12
12
12
12
12
POINT_DATA 28
SCALARS fixed int
LOOKUP_TABLE default
0
0
0
0
0
0
0
0
0
0
0
0
0
0
0
0
0
0
0
0
0
0
0
0
0
0
0
0
