# vtk DataFile Version 3.0
Mesquite Mesh
ASCII
DATASET UNSTRUCTURED_GRID
POINTS 14 double
-5.7613554e-06 5.690741535e-22 -2.321939815e-21
0.9390948713 -7.353737525e-17 1.659736988e-17
0.9298014469 0.9976465296 3.811688854e-17
0.01914986843 1.017638047 7.746348359e-19
-0.445293904 0.01666017455 0.7907262604
0.6095632566 0.002293477884 1.029807772
0.6203183391 0.9986880014 1.031122503
-0.4429459689 0.9999613916 0.7885793339
-0.445293904 0.01666017455 -0.7907262604
-0.4429459689 0.9999613916 -0.7885793339
0.6203183391 0.9986880014 -1.031122503
0.6095632566 0.002293477884 -1.029807772
-1.171080156 1.01816128 -4.037620913e-18
-1.184482791 0.009847602031 -5.720693247e-18
CELLS 3 27
8 7 6 5 4 3 2 1 0
8 11 10 9 8 1 2 3 0
8 12 13 8 9 7 4 0 3
CELL_TYPES 3
12
12
12
POINT_DATA 14
SCALARS fixed int
LOOKUP_TABLE default
0
0
0
0
0
0
0
0
0
0
0
0
0
0
