# vtk DataFile Version 3.0
Mesquite Mesh
ASCII
DATASET UNSTRUCTURED_GRID
POINTS 18 double
-5.7613554e-06 5.690741535e-22 -2.321939815e-21
0.9390948713 -7.353737525e-17 1.659736988e-17
0.9299971851 0.9989990244 -0.002521321276
0.02201191173 1.016971849 0.0004951225234
-0.4329102132 0.01591592625 0.7937907715
0.5820116215 0.002981590999 1.028799143
0.5944108825 1.000901443 1.031056927
-0.4250627534 1.008625244 0.7931179999
-0.4517852923 0.0170473681 -0.7849097459
-0.4427095411 1.009269061 -0.7836305834
0.6155341769 0.9962715178 -1.032811315
0.6046294369 0.006435705458 -1.030791161
-1.167768712 1.01925732 0.01341569571
-1.183703273 0.02482659262 0.01327752267
0.3490894366 0.9978689722 1.999319868
-0.6267148945 1.017106746 1.7688563
-0.6407138333 0.008394528404 1.764938241
0.3461768224 0.009152938199 1.99739291
CELLS 4 36
8 7 6 5 4 3 2 1 0
8 11 10 9 8 1 2 3 0
8 12 13 8 9 7 4 0 3
8 17 16 15 14 5 4 7 6
CELL_TYPES 4
12
12
12
12
POINT_DATA 18
SCALARS fixed int
LOOKUP_TABLE default
0
0
0
0
0
0
0
0
0
0
0
0
0
0
0
0
0
0
