# vtk DataFile Version 3.0
Mesquite Mesh
ASCII
DATASET UNSTRUCTURED_GRID
POINTS 18 double
0 0 0
1 0 0
1 1 0
0 1 0
0 0 1
1 0 1
1 1 1
0 1 1
0 0 -1
0 1 -1
1 1 -1
1 0 -1
0 -1 0
0 0 0
1 1 2
0 1 2
0 0 2
1 0 2
CELLS 4 36
8 7 6 5 4 3 2 1 0
8 11 10 9 8 1 2 3 0
8 13 12 8 9 7 4 0 3
8 17 16 15 14 5 4 7 6
CELL_TYPES 4
12
12
12
12
POINT_DATA 18
SCALARS fixed int
LOOKUP_TABLE default
0
0
0
0
0
0
0
0
0
0
0
0
0
0
0
0
0
0
