# vtk DataFile Version 3.0
Mesquite Mesh
ASCII
DATASET UNSTRUCTURED_GRID
POINTS 18 double
0.1365828797 1.430679432e-05 -0.1893695771
0.9391004167 7.570750712e-08 9.08120907e-06
0.8031907593 1.038135534 0.1372554105
0.1550943718 1.027104027 -0.1431378954
-0.4234712605 -0.02115679867 0.6120202517
0.579431042 -0.02797446183 0.7265355736
0.5525125909 0.9890243185 0.7645274106
-0.4606385441 0.9715809384 0.6931132433
0.1820415187 0.1012546974 -0.9984127676
0.1549035376 1.078835049 -0.9106917153
1.474144154 1.089379412 -0.1867124199
1.555262583 0.1433700328 -0.2572740655
-0.8560972688 1.017809316 -0.4034089446
-0.8675321505 0.05678268315 -0.4130055001
1.120542238 0.9837412127 1.330821023
0.05292343312 0.9444537107 1.686412536
0.04912116936 -0.01531697376 1.656059533
1.204636004 0.005808139112 1.236448763
CELLS 5 45
8 7 6 5 4 3 2 1 0
8 11 10 9 8 1 2 3 0
8 12 13 8 9 7 4 0 3
8 17 16 15 14 5 4 7 6
8 10 11 17 14 2 1 5 6
CELL_TYPES 5
12
12
12
12
12
POINT_DATA 18
SCALARS fixed int
LOOKUP_TABLE default
0
0
0
0
0
0
0
0
0
0
0
0
0
0
0
0
0
0
