# vtk DataFile Version 3.0
Mesquite Mesh
ASCII
DATASET UNSTRUCTURED_GRID
POINTS 20 double
0.2026893592 0.02239920467 -0.4213697857
1.034583183 0.07873585036 -0.8066483961
0.862570702 1.102867638 -0.5518474123
0.1922190212 1.062206813 -0.3994125187
-0.1688752102 0.001692302355 0.1945824239
0.961430574 0.04732396753 -0.01022006398
0.8720198087 1.047889462 0.07642727544
-0.2104492287 0.982776297 0.2892776541
0.2324589912 0.1167802169 -1.148410679
0.1696502738 1.132742324 -1.014390036
1.253574241 1.243002627 -1.223805915
1.375431435 0.2966959556 -1.358936595
-0.5413543606 1.102221388 -1.308010173
-0.5018711944 0.1482551538 -1.375182744
1.564560394 1.087080078 0.3849507403
0.6031587101 0.9558479433 1.071360218
0.6606933353 0.01629971908 1.003906926
1.66883914 0.1203436967 0.2495678077
0.4919986198 0.3155823226 -2.125673153
0.4139564192 1.2734952 -1.991780787
CELLS 6 54
8 7 6 5 4 3 2 1 0
8 11 10 9 8 1 2 3 0
8 12 13 8 9 7 4 0 3
8 17 16 15 14 5 4 7 6
8 10 11 17 14 2 1 5 6
8 18 19 12 13 11 10 9 8
CELL_TYPES 6
12
12
12
12
12
12
POINT_DATA 20
SCALARS fixed int
LOOKUP_TABLE default
0
0
0
0
0
0
0
0
0
0
0
0
0
0
0
0
0
0
0
0
