# vtk DataFile Version 3.0
Mesquite Mesh
ASCII
DATASET UNSTRUCTURED_GRID
POINTS 20 double
0.1656384651 0.0251446493 -0.5004192172
0.9144029123 0.08647542439 -0.9974930624
0.6867637955 1.093039109 -0.7233572131
0.1908348455 1.06015198 -0.5430008312
-0.1466150331 0.03276072665 -0.05618402832
0.9164351893 0.09025523847 -0.1305205977
0.7839300924 1.114040939 -0.06878988625
-0.2103349768 1.065954824 -0.03334447159
0.2651688591 0.08217483598 -1.220042873
0.1716362473 1.13129562 -1.057773081
0.9033380552 1.312435609 -1.450745906
1.073666025 0.4126920175 -1.634943897
-0.4338282019 1.120292369 -0.9891156785
-0.4179137236 0.1022945453 -1.082147809
1.197305805 1.166977528 0.2939197698
-0.5463488341 1.019072829 0.4250999887
-0.5092270397 0.1039021039 0.4115368282
1.348527204 0.2462776102 0.2150484942
-0.8444856002 0.2316465027 -1.459930474
-0.8897806943 1.158805197 -1.32481714
CELLS 7 63
8 7 6 5 4 3 2 1 0
8 11 10 9 8 1 2 3 0
8 12 13 8 9 7 4 0 3
8 17 16 15 14 5 4 7 6
8 10 11 17 14 2 1 5 6
8 18 19 12 13 11 10 9 8
8 18 19 15 16 13 12 7 4
CELL_TYPES 7
12
12
12
12
12
12
12
POINT_DATA 20
SCALARS fixed int
LOOKUP_TABLE default
0
0
0
0
0
0
0
0
0
0
0
0
0
0
0
0
0
0
0
0
