# vtk DataFile Version 3.0
Mesquite Mesh
ASCII
DATASET UNSTRUCTURED_GRID
POINTS 24 double
0.1656384651 0.0251446493 -0.5004192172
0.9144029123 0.08647542439 -0.9974930624
0.6446155494 1.073245654 -0.7220446132
0.1902341762 1.043764905 -0.5295569819
-0.1360154969 0.06001623676 -0.02805566856
0.9626606506 0.1463666557 -0.1343581424
0.7755535654 1.159910116 -0.104600618
-0.1757712032 1.090160057 -0.03034784945
0.2659970908 0.09931213191 -1.208544117
0.1642858491 1.141284625 -1.037388599
0.7494890628 1.370702887 -1.441827645
0.9612464536 0.4752437748 -1.653269994
-0.3531977861 1.157220975 -0.959314851
-0.341020897 0.1192411629 -1.08693671
1.199901193 1.293938086 0.2152898359
-0.5132752332 1.100941623 0.4195809399
-0.4949498953 0.1791336673 0.4197183959
1.390991166 0.3851447168 0.1995203682
-0.6845340732 0.2856866719 -1.464985775
-0.7439715539 1.212971136 -1.326518078
0.5922766365 0.5583609539 -2.539322385
-0.5365818344 0.4047490015 -2.414196895
-0.6256088081 1.363683628 -2.29758893
0.4527932471 1.517903724 -2.367207533
CELLS 8 72
8 7 6 5 4 3 2 1 0
8 11 10 9 8 1 2 3 0
8 12 13 8 9 7 4 0 3
8 17 16 15 14 5 4 7 6
8 10 11 17 14 2 1 5 6
8 18 19 12 13 11 10 9 8
8 18 19 15 16 13 12 7 4
8 23 22 21 20 10 19 18 11
CELL_TYPES 8
12
12
12
12
12
12
12
12
POINT_DATA 24
SCALARS fixed int
LOOKUP_TABLE default
0
0
0
0
0
0
0
0
0
0
0
0
0
0
0
0
0
0
0
0
0
0
0
0
