# vtk DataFile Version 3.0
Mesquite Mesh
ASCII
DATASET UNSTRUCTURED_GRID
POINTS 51 double
0.8847287794 -0.4709954423 0.1201880245
1.610527884 -1.146462441 0.321063747
1.30616167 -0.5332536437 0.1153840727
0.9423329591 -0.3154796472 0.04315217482
1.216091852 -0.5781360239 1.264744402
1.726537755 -1.049637527 0.6956029622
1.708386003 -0.1568570226 1.00778058
1.316973643 0.001345350785 1.400886707
0.7212835177 0.4805467473 0.9826280743
0.7274330412 0.00336814766 0.03922002214
0.6358274222 -0.4535043164 0.2007638352
0.5541512797 -0.3757250575 1.193841286
1.26693353 -0.1085273559 -0.01944357726
1.60423632 0.4746936222 0.6724233245
0.884517195 -1.351957281 -0.5554705609
0.8729859059 -0.9310523827 -1.060330007
1.464214746 -0.8716540746 -0.8270370356
1.629652488 -1.326835445 0.05541515181
0.3685907114 -0.1894197884 -0.881780232
0.18652515 -0.9876598044 -0.3745268528
1.344128626 -0.08351436982 -0.9063641945
0.448585384 -0.6643668673 0.3688674765
0.372770172 -0.6149712499 0.7797764331
0.2186004237 -0.8650294027 0.1329690517
0.4842640445 0.4410790335 0.4238103374
0.5204786008 0.2036828444 0.03632167604
0.3326254674 0.1734696339 -0.3358538913
1.45883797 0.08119076308 -0.08232670329
1.600638077 0.3513185135 0.1786640763
1.495630743 0.1204588019 -0.4707433176
0.1705008151 0.5542453974 -0.001854053403
1.736440891 0.4542515327 -0.2321890708
0.03020346715 -0.8719311837 0.5828432433
1.950147311 -1.486069185 0.4261922513
1.16531805 -1.157608573 1.68551437
-0.02720403511 -0.5420050878 1.476524019
0.3214411587 1.001975366 1.04353869
1.456424095 0.173237874 1.95331463
2.437205872 -0.1443831012 1.035197335
1.917555479 0.9979805323 0.5302400155
-0.3763179908 -1.210492288 -0.2850054108
-0.07241294471 0.2159248691 -1.075795853
0.7611870584 -1.976394965 -0.3968431213
0.8260254682 -1.166524328 -1.59925906
2.097811119 -0.9073477756 -1.006582364
1.607741073 0.3473011996 -1.230072345
1.861691074 1.152543975 -0.5278725319
-0.2028926468 0.9558920357 -0.09520211525
-0.710030312 -0.8930211419 0.7166235387
2.659927714 0.06294516243 -0.2962384909
0.2877713798 -1.838414694 0.8547426469
CELLS 36 324
8 7 6 5 4 3 2 1 0
8 11 10 9 8 4 0 3 7
8 12 13 8 9 2 6 7 3
8 17 16 15 14 1 2 3 0
8 18 19 14 15 9 10 0 3
8 16 20 18 15 2 12 9 3
8 21 22 5 1 10 11 4 0
8 19 23 17 14 10 21 1 0
8 24 25 9 8 22 21 10 11
8 23 26 25 21 19 18 9 10
8 27 28 13 12 1 5 6 2
8 20 29 27 12 16 17 1 2
8 27 28 24 25 12 13 8 9
8 29 26 18 20 27 25 9 12
8 30 31 28 24 26 29 27 25
8 30 32 23 26 24 22 21 25
8 32 33 17 23 22 5 1 21
8 31 33 5 28 29 17 1 27
8 34 35 11 4 33 32 22 5
8 30 36 35 32 24 8 11 22
8 34 37 7 4 35 36 8 11
8 37 38 33 34 7 6 5 4
8 38 39 13 6 37 36 8 7
8 31 39 36 30 28 13 8 24
8 38 39 31 33 6 13 28 5
8 40 41 30 32 19 18 26 23
8 14 42 33 17 19 40 32 23
8 42 43 41 40 14 15 18 19
8 33 44 43 42 17 16 15 14
8 31 45 20 29 30 41 18 26
8 45 44 33 31 20 16 17 29
8 45 41 43 44 20 18 15 16
8 46 47 41 45 39 36 30 31
8 35 48 47 36 32 40 41 30
8 44 49 46 45 33 38 39 31
8 34 50 48 35 33 42 40 32
CELL_TYPES 36
12
12
12
12
12
12
12
12
12
12
12
12
12
12
12
12
12
12
12
12
12
12
12
12
12
12
12
12
12
12
12
12
12
12
12
12
POINT_DATA 51
SCALARS fixed int
LOOKUP_TABLE default
0
0
0
0
0
0
0
0
0
0
0
0
0
0
0
0
0
0
0
0
0
0
0
0
0
0
0
0
0
0
0
0
0
0
0
0
0
0
0
0
0
0
0
0
0
0
0
0
0
0
0
